# vtk DataFile Version 3.0
results.vtk
ASCII
DATASET RECTILINEAR_GRID
DIMENSIONS 100 100 1
X_COORDINATES 100 double
0.000000 0.010000 0.020000 0.030000 0.040000 0.050000 0.060000 0.070000 0.080000 0.090000 0.100000 0.110000 0.120000 0.130000 0.140000 0.150000 0.160000 0.170000 0.180000 0.190000 0.200000 0.210000 0.220000 0.230000 0.240000 0.250000 0.260000 0.270000 0.280000 0.290000 0.300000 0.310000 0.320000 0.330000 0.340000 0.350000 0.360000 0.370000 0.380000 0.390000 0.400000 0.410000 0.420000 0.430000 0.440000 0.450000 0.460000 0.470000 0.480000 0.490000 0.500000 0.510000 0.520000 0.530000 0.540000 0.550000 0.560000 0.570000 0.580000 0.590000 0.600000 0.610000 0.620000 0.630000 0.640000 0.650000 0.660000 0.670000 0.680000 0.690000 0.700000 0.710000 0.720000 0.730000 0.740000 0.750000 0.760000 0.770000 0.780000 0.790000 0.800000 0.810000 0.820000 0.830000 0.840000 0.850000 0.860000 0.870000 0.880000 0.890000 0.900000 0.910000 0.920000 0.930000 0.940000 0.950000 0.960000 0.970000 0.980000 0.990000 
Y_COORDINATES 100 double
0.000000 0.010000 0.020000 0.030000 0.040000 0.050000 0.060000 0.070000 0.080000 0.090000 0.100000 0.110000 0.120000 0.130000 0.140000 0.150000 0.160000 0.170000 0.180000 0.190000 0.200000 0.210000 0.220000 0.230000 0.240000 0.250000 0.260000 0.270000 0.280000 0.290000 0.300000 0.310000 0.320000 0.330000 0.340000 0.350000 0.360000 0.370000 0.380000 0.390000 0.400000 0.410000 0.420000 0.430000 0.440000 0.450000 0.460000 0.470000 0.480000 0.490000 0.500000 0.510000 0.520000 0.530000 0.540000 0.550000 0.560000 0.570000 0.580000 0.590000 0.600000 0.610000 0.620000 0.630000 0.640000 0.650000 0.660000 0.670000 0.680000 0.690000 0.700000 0.710000 0.720000 0.730000 0.740000 0.750000 0.760000 0.770000 0.780000 0.790000 0.800000 0.810000 0.820000 0.830000 0.840000 0.850000 0.860000 0.870000 0.880000 0.890000 0.900000 0.910000 0.920000 0.930000 0.940000 0.950000 0.960000 0.970000 0.980000 0.990000 
Z_COORDINATES 1 double
0
POINT_DATA 10000 
FIELD FieldData 1 
Concentração 1 10000 double 
0.063342 
0.000000 
0.056914 
0.046618 
0.000000 
0.041581 
0.044754 
0.046285 
0.000000 
0.026953 
0.033173 
0.046515 
0.000000 
0.033257 
0.000000 
0.000000 
0.000000 
0.044558 
0.000000 
0.000000 
0.048657 
0.000000 
0.000000 
0.044828 
0.046748 
0.000000 
0.026620 
0.022638 
0.029095 
0.025234 
0.025693 
0.039905 
0.046664 
0.039334 
0.023703 
0.023670 
0.035407 
0.000000 
0.019931 
0.019120 
0.000000 
0.034628 
0.041828 
0.036867 
0.016621 
0.000000 
0.008129 
0.022971 
0.000000 
0.000000 
0.000000 
0.050383 
0.000000 
0.013675 
0.000000 
0.000000 
0.000000 
0.027010 
0.059573 
0.000000 
0.058316 
0.000000 
0.042125 
0.042109 
0.037800 
0.025163 
0.025216 
0.034936 
0.030492 
0.029620 
0.018923 
0.012998 
0.009116 
0.010639 
0.012755 
0.020432 
0.000000 
0.011222 
0.000000 
0.000000 
0.010786 
0.019138 
0.033244 
0.041241 
0.053852 
0.000000 
0.039750 
0.000000 
0.024842 
0.030680 
0.000000 
0.000000 
0.028101 
0.012574 
0.011904 
0.024669 
0.000000 
0.026949 
0.013794 
0.000000 
0.062172 
0.000000 
0.000000 
0.044678 
0.000000 
0.038111 
0.000000 
0.000000 
0.033002 
0.027544 
0.039580 
0.000000 
0.037594 
0.025524 
0.032845 
0.047102 
0.051758 
0.043640 
0.035406 
0.034717 
0.042578 
0.000000 
0.046930 
0.046105 
0.000000 
0.042572 
0.029255 
0.027046 
0.000000 
0.030772 
0.029056 
0.000000 
0.000000 
0.000000 
0.026022 
0.026099 
0.000000 
0.027444 
0.016196 
0.016428 
0.025249 
0.035702 
0.000000 
0.000000 
0.018453 
0.000000 
0.008976 
0.021424 
0.032361 
0.047500 
0.000000 
0.049224 
0.028719 
0.011200 
0.000000 
0.000000 
0.009475 
0.033757 
0.000000 
0.000000 
0.056457 
0.000000 
0.039469 
0.000000 
0.000000 
0.030343 
0.031974 
0.000000 
0.035582 
0.000000 
0.023746 
0.019458 
0.015256 
0.017034 
0.017843 
0.023363 
0.019653 
0.008428 
0.000000 
0.006375 
0.016030 
0.023225 
0.000000 
0.047123 
0.000000 
0.000000 
0.033715 
0.027398 
0.025073 
0.030242 
0.038060 
0.000000 
0.024603 
0.014126 
0.013736 
0.022765 
0.000000 
0.026025 
0.017944 
0.009162 
0.000000 
0.051626 
0.042297 
0.036416 
0.030206 
0.021757 
0.023464 
0.025160 
0.024918 
0.032237 
0.000000 
0.000000 
0.033838 
0.019352 
0.027258 
0.000000 
0.000000 
0.000000 
0.035372 
0.028703 
0.000000 
0.039474 
0.040679 
0.000000 
0.048194 
0.000000 
0.040235 
0.035969 
0.035971 
0.000000 
0.024219 
0.027372 
0.032139 
0.029847 
0.023587 
0.028725 
0.032111 
0.021587 
0.015587 
0.019271 
0.024172 
0.000000 
0.036381 
0.033298 
0.017080 
0.007894 
0.012755 
0.000000 
0.023887 
0.034490 
0.000000 
0.000000 
0.029777 
0.012459 
0.000000 
0.000000 
0.015053 
0.042636 
0.000000 
0.000000 
0.049444 
0.034812 
0.025842 
0.027272 
0.031241 
0.035837 
0.040986 
0.000000 
0.034451 
0.032820 
0.027815 
0.000000 
0.025580 
0.000000 
0.029136 
0.000000 
0.021769 
0.007736 
0.000000 
0.010609 
0.000000 
0.023567 
0.035089 
0.000000 
0.041586 
0.032763 
0.025512 
0.031536 
0.037722 
0.000000 
0.029436 
0.025806 
0.020501 
0.022141 
0.021837 
0.020459 
0.025268 
0.022508 
0.000000 
0.015131 
0.041837 
0.000000 
0.038621 
0.000000 
0.028271 
0.014632 
0.012369 
0.018443 
0.030116 
0.042720 
0.054116 
0.000000 
0.028277 
0.014859 
0.020344 
0.038007 
0.000000 
0.000000 
0.033196 
0.023686 
0.026732 
0.032198 
0.039146 
0.000000 
0.042953 
0.043071 
0.000000 
0.000000 
0.037175 
0.025057 
0.015452 
0.018392 
0.028356 
0.031929 
0.030231 
0.000000 
0.000000 
0.024574 
0.021938 
0.000000 
0.021670 
0.022578 
0.026390 
0.000000 
0.018941 
0.011107 
0.010377 
0.013266 
0.011512 
0.019749 
0.037487 
0.000000 
0.031182 
0.020026 
0.007678 
0.000000 
0.018299 
0.000000 
0.000000 
0.057216 
0.000000 
0.029415 
0.023119 
0.021397 
0.030356 
0.000000 
0.000000 
0.041283 
0.030199 
0.000000 
0.027398 
0.028587 
0.021661 
0.021121 
0.025155 
0.000000 
0.022323 
0.009124 
0.000000 
0.007770 
0.013830 
0.015273 
0.026279 
0.000000 
0.032842 
0.024983 
0.028182 
0.000000 
0.000000 
0.045033 
0.026331 
0.021201 
0.025952 
0.000000 
0.000000 
0.026327 
0.025268 
0.018612 
0.016116 
0.010830 
0.024808 
0.026297 
0.030429 
0.000000 
0.033576 
0.017840 
0.014175 
0.026855 
0.000000 
0.000000 
0.000000 
0.048633 
0.024441 
0.014987 
0.019906 
0.025871 
0.033401 
0.036731 
0.032861 
0.028409 
0.028067 
0.000000 
0.042714 
0.000000 
0.037611 
0.033997 
0.000000 
0.040177 
0.000000 
0.018939 
0.010969 
0.019749 
0.000000 
0.000000 
0.036103 
0.036964 
0.032005 
0.024250 
0.027098 
0.026237 
0.018246 
0.014907 
0.020386 
0.029598 
0.022723 
0.019142 
0.013755 
0.008646 
0.000000 
0.012546 
0.026496 
0.033348 
0.034703 
0.000000 
0.014759 
0.000000 
0.011310 
0.030962 
0.000000 
0.038857 
0.034827 
0.027435 
0.000000 
0.023220 
0.028723 
0.000000 
0.049615 
0.039342 
0.025369 
0.023077 
0.024736 
0.000000 
0.020128 
0.013782 
0.016059 
0.025300 
0.023525 
0.016458 
0.013763 
0.010673 
0.010286 
0.010190 
0.019559 
0.035161 
0.035416 
0.031460 
0.034041 
0.050523 
0.000000 
0.000000 
0.030193 
0.028857 
0.034558 
0.038936 
0.032751 
0.029216 
0.000000 
0.022924 
0.015839 
0.012306 
0.022956 
0.021929 
0.024974 
0.036502 
0.000000 
0.027421 
0.022859 
0.038026 
0.059279 
0.000000 
0.065447 
0.000000 
0.026020 
0.020246 
0.000000 
0.028732 
0.028230 
0.036789 
0.000000 
0.000000 
0.032786 
0.035500 
0.043409 
0.000000 
0.034673 
0.025023 
0.024250 
0.020380 
0.017011 
0.009212 
0.000000 
0.015071 
0.030603 
0.000000 
0.034646 
0.000000 
0.034392 
0.032748 
0.000000 
0.038994 
0.027479 
0.019634 
0.026844 
0.000000 
0.034605 
0.000000 
0.028043 
0.017660 
0.011917 
0.016103 
0.000000 
0.030825 
0.000000 
0.037005 
0.017917 
0.000000 
0.000000 
0.011746 
0.020318 
0.023129 
0.000000 
0.022867 
0.022611 
0.022180 
0.022917 
0.036120 
0.000000 
0.000000 
0.031235 
0.022047 
0.023899 
0.025091 
0.020616 
0.013278 
0.015505 
0.027657 
0.000000 
0.028592 
0.000000 
0.019104 
0.016866 
0.014196 
0.022285 
0.000000 
0.000000 
0.000000 
0.047872 
0.000000 
0.054010 
0.038877 
0.029981 
0.000000 
0.000000 
0.000000 
0.033453 
0.028842 
0.000000 
0.027086 
0.025816 
0.026838 
0.000000 
0.034352 
0.032781 
0.036529 
0.000000 
0.036274 
0.035576 
0.000000 
0.000000 
0.000000 
0.000000 
0.045495 
0.024515 
0.019303 
0.025660 
0.000000 
0.029644 
0.000000 
0.043136 
0.039359 
0.039547 
0.043139 
0.000000 
0.052274 
0.044007 
0.032564 
0.020252 
0.013264 
0.010281 
0.009283 
0.009603 
0.016402 
0.019448 
0.022556 
0.021108 
0.027334 
0.000000 
0.035568 
0.000000 
0.000000 
0.000000 
0.028434 
0.033717 
0.000000 
0.037092 
0.042129 
0.000000 
0.033539 
0.024008 
0.016437 
0.017266 
0.020109 
0.032732 
0.000000 
0.024968 
0.008281 
0.000000 
0.000000 
0.000000 
0.008431 
0.015865 
0.016813 
0.019441 
0.000000 
0.020324 
0.025319 
0.036882 
0.000000 
0.038330 
0.028640 
0.000000 
0.026585 
0.000000 
0.016379 
0.017805 
0.000000 
0.032164 
0.030908 
0.025477 
0.021201 
0.000000 
0.020666 
0.022703 
0.034094 
0.042482 
0.044474 
0.000000 
0.059047 
0.000000 
0.035740 
0.024336 
0.032334 
0.045989 
0.048307 
0.036454 
0.027342 
0.027723 
0.026904 
0.000000 
0.000000 
0.042255 
0.000000 
0.000000 
0.040283 
0.037894 
0.000000 
0.036945 
0.000000 
0.062434 
0.059922 
0.051326 
0.000000 
0.026885 
0.021532 
0.018501 
0.018796 
0.019335 
0.028819 
0.000000 
0.042470 
0.000000 
0.000000 
0.053417 
0.000000 
0.000000 
0.000000 
0.033088 
0.022205 
0.017962 
0.020973 
0.020861 
0.000000 
0.018498 
0.015680 
0.013541 
0.014652 
0.018292 
0.022073 
0.034500 
0.039361 
0.031308 
0.025110 
0.000000 
0.033042 
0.033822 
0.000000 
0.046363 
0.000000 
0.000000 
0.018196 
0.009454 
0.010643 
0.024743 
0.000000 
0.033102 
0.016993 
0.007935 
0.000000 
0.000000 
0.000000 
0.011694 
0.019129 
0.017514 
0.018132 
0.018473 
0.024106 
0.027222 
0.037436 
0.000000 
0.033144 
0.025862 
0.018214 
0.014930 
0.009013 
0.011515 
0.020351 
0.028104 
0.000000 
0.025213 
0.017930 
0.022149 
0.027208 
0.031880 
0.037846 
0.000000 
0.038584 
0.049299 
0.000000 
0.000000 
0.039929 
0.026477 
0.031477 
0.000000 
0.000000 
0.000000 
0.037951 
0.029458 
0.021935 
0.024036 
0.026391 
0.029784 
0.035980 
0.042619 
0.000000 
0.027183 
0.022899 
0.024611 
0.042491 
0.000000 
0.000000 
0.049196 
0.041469 
0.030694 
0.000000 
0.018484 
0.012803 
0.012496 
0.017392 
0.027003 
0.037718 
0.000000 
0.054002 
0.048205 
0.064164 
0.000000 
0.000000 
0.041989 
0.000000 
0.031654 
0.000000 
0.030302 
0.024698 
0.021358 
0.022870 
0.020286 
0.013216 
0.011244 
0.016760 
0.030067 
0.000000 
0.024803 
0.016428 
0.018367 
0.022051 
0.031747 
0.042420 
0.044560 
0.042933 
0.030599 
0.013025 
0.000000 
0.000000 
0.017522 
0.034615 
0.000000 
0.031750 
0.023834 
0.012211 
0.000000 
0.000000 
0.016934 
0.000000 
0.024795 
0.019789 
0.026409 
0.000000 
0.028196 
0.031372 
0.000000 
0.041434 
0.031132 
0.018068 
0.009133 
0.000000 
0.010147 
0.016752 
0.024028 
0.000000 
0.025212 
0.018340 
0.022967 
0.000000 
0.000000 
0.000000 
0.036962 
0.032454 
0.000000 
0.050925 
0.050542 
0.000000 
0.034641 
0.032455 
0.046742 
0.000000 
0.047026 
0.000000 
0.000000 
0.024612 
0.017156 
0.012979 
0.026806 
0.033174 
0.000000 
0.028123 
0.016687 
0.013438 
0.015805 
0.032302 
0.000000 
0.052309 
0.000000 
0.000000 
0.033955 
0.031941 
0.020900 
0.017125 
0.018312 
0.018647 
0.025201 
0.032924 
0.000000 
0.000000 
0.048171 
0.000000 
0.000000 
0.055655 
0.038193 
0.030431 
0.032537 
0.000000 
0.041322 
0.033217 
0.033817 
0.000000 
0.000000 
0.020713 
0.013711 
0.019379 
0.000000 
0.029827 
0.022489 
0.012395 
0.010149 
0.019005 
0.000000 
0.000000 
0.000000 
0.000000 
0.033762 
0.014229 
0.000000 
0.007462 
0.019815 
0.031440 
0.000000 
0.047259 
0.000000 
0.030120 
0.010849 
0.000000 
0.017595 
0.000000 
0.033054 
0.028357 
0.038419 
0.000000 
0.028055 
0.025435 
0.041551 
0.000000 
0.000000 
0.029922 
0.015773 
0.014298 
0.024995 
0.027438 
0.023292 
0.026558 
0.026832 
0.023433 
0.020181 
0.025346 
0.031054 
0.032316 
0.030831 
0.025349 
0.033081 
0.000000 
0.049651 
0.049009 
0.000000 
0.036842 
0.000000 
0.037441 
0.027994 
0.027438 
0.029579 
0.029840 
0.023513 
0.014065 
0.028696 
0.000000 
0.027586 
0.017718 
0.013733 
0.015093 
0.014097 
0.023470 
0.000000 
0.036882 
0.037516 
0.038798 
0.035372 
0.000000 
0.031689 
0.032219 
0.000000 
0.028787 
0.000000 
0.026140 
0.029861 
0.032184 
0.036804 
0.000000 
0.000000 
0.049102 
0.000000 
0.031197 
0.033384 
0.050230 
0.000000 
0.051638 
0.000000 
0.035935 
0.031362 
0.024474 
0.018245 
0.021307 
0.023227 
0.022470 
0.000000 
0.011372 
0.000000 
0.009087 
0.023495 
0.032934 
0.038038 
0.043021 
0.000000 
0.019864 
0.009666 
0.014200 
0.000000 
0.028823 
0.037340 
0.000000 
0.000000 
0.000000 
0.015868 
0.000000 
0.010845 
0.028592 
0.000000 
0.041789 
0.000000 
0.050627 
0.028821 
0.024727 
0.041132 
0.000000 
0.048029 
0.000000 
0.024880 
0.030406 
0.000000 
0.000000 
0.033770 
0.027951 
0.000000 
0.000000 
0.024669 
0.021657 
0.027371 
0.031819 
0.000000 
0.026056 
0.025337 
0.038921 
0.000000 
0.000000 
0.041166 
0.037344 
0.035389 
0.029158 
0.019560 
0.020485 
0.030428 
0.000000 
0.000000 
0.022263 
0.023514 
0.023591 
0.020699 
0.016034 
0.020896 
0.000000 
0.014566 
0.013033 
0.023526 
0.029843 
0.035169 
0.000000 
0.033911 
0.000000 
0.036947 
0.000000 
0.035911 
0.031499 
0.030484 
0.020535 
0.019477 
0.023116 
0.025062 
0.036943 
0.046315 
0.044266 
0.042923 
0.038967 
0.042809 
0.000000 
0.000000 
0.000000 
0.043639 
0.029810 
0.031794 
0.000000 
0.025941 
0.000000 
0.018835 
0.011931 
0.011466 
0.005657 
0.000000 
0.000000 
0.019101 
0.026235 
0.028521 
0.000000 
0.030929 
0.021922 
0.012913 
0.015420 
0.025696 
0.025795 
0.023788 
0.029346 
0.034618 
0.024975 
0.008895 
0.000000 
0.000000 
0.021286 
0.042350 
0.053429 
0.000000 
0.000000 
0.038166 
0.032109 
0.000000 
0.052744 
0.048585 
0.039423 
0.031629 
0.039860 
0.000000 
0.000000 
0.040490 
0.025301 
0.025259 
0.029502 
0.031404 
0.029116 
0.000000 
0.038096 
0.000000 
0.028822 
0.026135 
0.035525 
0.000000 
0.039892 
0.036810 
0.000000 
0.043665 
0.000000 
0.025012 
0.027357 
0.035766 
0.000000 
0.036657 
0.019712 
0.041129 
0.036550 
0.038092 
0.030990 
0.040588 
0.025643 
0.009775 
0.000000 
0.023188 
0.047067 
0.000000 
0.029689 
0.019020 
0.021314 
0.026071 
0.000000 
0.036867 
0.047493 
0.000000 
0.026312 
0.026034 
0.000000 
0.029731 
0.035803 
0.000000 
0.000000 
0.000000 
0.000000 
0.000000 
0.054968 
0.078434 
0.000000 
0.043147 
0.027573 
0.000000 
0.031467 
0.022520 
0.023679 
0.016565 
0.000000 
0.000000 
0.000000 
0.000000 
0.020728 
0.040244 
0.000000 
0.023474 
0.022702 
0.023063 
0.000000 
0.018933 
0.027163 
0.042812 
0.000000 
0.021864 
0.023820 
0.036661 
0.023579 
0.000000 
0.000000 
0.000000 
0.028268 
0.000000 
0.079199 
0.000000 
0.000000 
0.048328 
0.039459 
0.000000 
0.073696 
0.000000 
0.072303 
0.062112 
0.053977 
0.000000 
0.059465 
0.000000 
0.030127 
0.023621 
0.037308 
0.000000 
0.045058 
0.052375 
0.050038 
0.057390 
0.040826 
0.048389 
0.051605 
0.042457 
0.031588 
0.030191 
0.000000 
0.000000 
0.033095 
0.030030 
0.000000 
0.054909 
0.050772 
0.043978 
0.022535 
0.000000 
0.088669 
0.000000 
0.071799 
0.000000 
0.043475 
0.011168 
0.011871 
0.048525 
0.000000 
0.057426 
0.025326 
0.000000 
0.000000 
0.010215 
0.022985 
0.040687 
0.000000 
0.072723 
0.041585 
0.051004 
0.049539 
0.056702 
0.058684 
0.042808 
0.039094 
0.033912 
0.032833 
0.037682 
0.053425 
0.000000 
0.000000 
0.049286 
0.028330 
0.036788 
0.044137 
0.032509 
0.046556 
0.044325 
0.024752 
0.023406 
0.036394 
0.036154 
0.063770 
0.000000 
0.046591 
0.019094 
0.017564 
0.019323 
0.020652 
0.025661 
0.059871 
0.000000 
0.050720 
0.023816 
0.035114 
0.000000 
0.056789 
0.018483 
0.000000 
0.009438 
0.041647 
0.000000 
0.000000 
0.126820 
0.000000 
0.068427 
0.057609 
0.072716 
0.000000 
0.000000 
0.000000 
0.000000 
0.086577 
0.000000 
0.066151 
0.066726 
0.058709 
0.040969 
0.070357 
0.000000 
0.078791 
0.000000 
0.106449 
0.000000 
0.082005 
0.000000 
0.000000 
0.079291 
0.052782 
0.026835 
0.027238 
0.027364 
0.026846 
0.040286 
0.084103 
0.000000 
0.095469 
0.000000 
0.040414 
0.092969 
0.000000 
0.072538 
0.066651 
0.000000 
0.042983 
0.012576 
0.023702 
0.074872 
0.000000 
0.061586 
0.044585 
0.014744 
0.000000 
0.000000 
0.000000 
0.018612 
0.059797 
0.000000 
0.077104 
0.000000 
0.112010 
0.000000 
0.000000 
0.067860 
0.050948 
0.025472 
0.022345 
0.037019 
0.032030 
0.053432 
0.055084 
0.034368 
0.050267 
0.071086 
0.000000 
0.071172 
0.000000 
0.000000 
0.079444 
0.078740 
0.000000 
0.097078 
0.000000 
0.086872 
0.035576 
0.022280 
0.043097 
0.047264 
0.026715 
0.037395 
0.000000 
0.070500 
0.052440 
0.027201 
0.024708 
0.058978 
0.000000 
0.043411 
0.035276 
0.020995 
0.021922 
0.051924 
0.079851 
0.000000 
0.000000 
0.077730 
0.000000 
0.076770 
0.069888 
0.070889 
0.088890 
0.000000 
0.068681 
0.078894 
0.071307 
0.000000 
0.000000 
0.086241 
0.000000 
0.102414 
0.079318 
0.092728 
0.000000 
0.000000 
0.075763 
0.084739 
0.089007 
0.000000 
0.000000 
0.039834 
0.016603 
0.022787 
0.051321 
0.085410 
0.000000 
0.134849 
0.000000 
0.067556 
0.031315 
0.064335 
0.077064 
0.053229 
0.069671 
0.081371 
0.032100 
0.015589 
0.045957 
0.000000 
0.112596 
0.074719 
0.000000 
0.041447 
0.018954 
0.026985 
0.010553 
0.000000 
0.030054 
0.069167 
0.076653 
0.000000 
0.000000 
0.132294 
0.000000 
0.099949 
0.000000 
0.048061 
0.038215 
0.000000 
0.044794 
0.054694 
0.056361 
0.051453 
0.000000 
0.000000 
0.077963 
0.067216 
0.066402 
0.084210 
0.000000 
0.000000 
0.129576 
0.000000 
0.101780 
0.000000 
0.041560 
0.043597 
0.000000 
0.000000 
0.049976 
0.033694 
0.064703 
0.061320 
0.000000 
0.065549 
0.030618 
0.039529 
0.065639 
0.053017 
0.000000 
0.056516 
0.024349 
0.024562 
0.035391 
0.055718 
0.053889 
0.036337 
0.061225 
0.000000 
0.069224 
0.044589 
0.054903 
0.055537 
0.052726 
0.000000 
0.085968 
0.105300 
0.000000 
0.099308 
0.088116 
0.000000 
0.000000 
0.085893 
0.000000 
0.091523 
0.066744 
0.000000 
0.074805 
0.092157 
0.086043 
0.033413 
0.016925 
0.042395 
0.000000 
0.000000 
0.000000 
0.000000 
0.110689 
0.054601 
0.050408 
0.113655 
0.000000 
0.095967 
0.000000 
0.000000 
0.053447 
0.024165 
0.056337 
0.000000 
0.000000 
0.088290 
0.000000 
0.045910 
0.035249 
0.000000 
0.027381 
0.011420 
0.035080 
0.000000 
0.080211 
0.096284 
0.000000 
0.127743 
0.000000 
0.117134 
0.000000 
0.048257 
0.028088 
0.039312 
0.047338 
0.000000 
0.000000 
0.053904 
0.054910 
0.056540 
0.066503 
0.000000 
0.070830 
0.072733 
0.089139 
0.091636 
0.000000 
0.000000 
0.071836 
0.045090 
0.021669 
0.029430 
0.069360 
0.000000 
0.048681 
0.039581 
0.000000 
0.061456 
0.099284 
0.000000 
0.062592 
0.068029 
0.000000 
0.049858 
0.063464 
0.000000 
0.046787 
0.050287 
0.058295 
0.060122 
0.036025 
0.021153 
0.027712 
0.059060 
0.000000 
0.064768 
0.000000 
0.042443 
0.041729 
0.095449 
0.000000 
0.118677 
0.000000 
0.000000 
0.069370 
0.077955 
0.060605 
0.052497 
0.084848 
0.080223 
0.082856 
0.101803 
0.103346 
0.000000 
0.000000 
0.060562 
0.029110 
0.046293 
0.060080 
0.066524 
0.093625 
0.000000 
0.000000 
0.083945 
0.000000 
0.000000 
0.000000 
0.109760 
0.000000 
0.000000 
0.062598 
0.037337 
0.062127 
0.092403 
0.000000 
0.059883 
0.049136 
0.020746 
0.014068 
0.026195 
0.010459 
0.000000 
0.026044 
0.065523 
0.000000 
0.071107 
0.111845 
0.000000 
0.119624 
0.000000 
0.084146 
0.038247 
0.039176 
0.031396 
0.031833 
0.057485 
0.078169 
0.050043 
0.050999 
0.048719 
0.078086 
0.000000 
0.102948 
0.000000 
0.000000 
0.062541 
0.071534 
0.088243 
0.061961 
0.034864 
0.027347 
0.039780 
0.041259 
0.050199 
0.026776 
0.019214 
0.037421 
0.050166 
0.000000 
0.000000 
0.083042 
0.000000 
0.060217 
0.025666 
0.033060 
0.064192 
0.058701 
0.000000 
0.000000 
0.000000 
0.088033 
0.050640 
0.022955 
0.025215 
0.045231 
0.050852 
0.042902 
0.025752 
0.051798 
0.000000 
0.118486 
0.000000 
0.092445 
0.065918 
0.056100 
0.000000 
0.057406 
0.076348 
0.000000 
0.000000 
0.000000 
0.000000 
0.000000 
0.138786 
0.000000 
0.096952 
0.062395 
0.000000 
0.064689 
0.033185 
0.035567 
0.070150 
0.089197 
0.081627 
0.096407 
0.107361 
0.100545 
0.088737 
0.000000 
0.104461 
0.074327 
0.085014 
0.000000 
0.089609 
0.062080 
0.040193 
0.043989 
0.022086 
0.000000 
0.000000 
0.000000 
0.015747 
0.046020 
0.062651 
0.053965 
0.054546 
0.000000 
0.000000 
0.094017 
0.000000 
0.081079 
0.055964 
0.000000 
0.080209 
0.066000 
0.068885 
0.000000 
0.106595 
0.000000 
0.096569 
0.000000 
0.094173 
0.000000 
0.078668 
0.058904 
0.041240 
0.073505 
0.000000 
0.000000 
0.079803 
0.076749 
0.000000 
0.078148 
0.069876 
0.048978 
0.020915 
0.018016 
0.020818 
0.048301 
0.067261 
0.069561 
0.071865 
0.032485 
0.014477 
0.033323 
0.000000 
0.054425 
0.065617 
0.098942 
0.000000 
0.000000 
0.000000 
0.047433 
0.029251 
0.045327 
0.000000 
0.036899 
0.024080 
0.062926 
0.000000 
0.124914 
0.000000 
0.069518 
0.061100 
0.059262 
0.058979 
0.056837 
0.000000 
0.104467 
0.107433 
0.000000 
0.000000 
0.000000 
0.148850 
0.000000 
0.000000 
0.099423 
0.078341 
0.000000 
0.036797 
0.033307 
0.079294 
0.000000 
0.000000 
0.000000 
0.000000 
0.000000 
0.091717 
0.000000 
0.102947 
0.000000 
0.000000 
0.000000 
0.000000 
0.064520 
0.076020 
0.000000 
0.067053 
0.022945 
0.015727 
0.033755 
0.047380 
0.000000 
0.000000 
0.053842 
0.026568 
0.044820 
0.052454 
0.043756 
0.067886 
0.000000 
0.064547 
0.109969 
0.000000 
0.000000 
0.098876 
0.000000 
0.000000 
0.121346 
0.000000 
0.075257 
0.041815 
0.050479 
0.060481 
0.058398 
0.053643 
0.000000 
0.074832 
0.079580 
0.000000 
0.000000 
0.107491 
0.000000 
0.000000 
0.000000 
0.050579 
0.036659 
0.019290 
0.030265 
0.072467 
0.000000 
0.000000 
0.037809 
0.012493 
0.022305 
0.048307 
0.061192 
0.061740 
0.069307 
0.000000 
0.111147 
0.076566 
0.068800 
0.067541 
0.063653 
0.046859 
0.023775 
0.033780 
0.084243 
0.000000 
0.000000 
0.104754 
0.070711 
0.000000 
0.000000 
0.087272 
0.068315 
0.073881 
0.000000 
0.066443 
0.105253 
0.000000 
0.000000 
0.000000 
0.155699 
0.000000 
0.000000 
0.067561 
0.041747 
0.025453 
0.053413 
0.000000 
0.092360 
0.071476 
0.062602 
0.053234 
0.051336 
0.058829 
0.000000 
0.096073 
0.090556 
0.070210 
0.062707 
0.054697 
0.060635 
0.000000 
0.133572 
0.000000 
0.053225 
0.037726 
0.000000 
0.053184 
0.075964 
0.000000 
0.044421 
0.011870 
0.014622 
0.028048 
0.040011 
0.035412 
0.049434 
0.062382 
0.000000 
0.000000 
0.000000 
0.084905 
0.115418 
0.000000 
0.118158 
0.000000 
0.050348 
0.021105 
0.041719 
0.000000 
0.000000 
0.072825 
0.049806 
0.030022 
0.034587 
0.059300 
0.086323 
0.089783 
0.116374 
0.000000 
0.103719 
0.059044 
0.000000 
0.035816 
0.039901 
0.000000 
0.093030 
0.057456 
0.020329 
0.016639 
0.041612 
0.067943 
0.000000 
0.000000 
0.058776 
0.075784 
0.000000 
0.092020 
0.000000 
0.000000 
0.000000 
0.063778 
0.040831 
0.075962 
0.000000 
0.095051 
0.081620 
0.000000 
0.066301 
0.084533 
0.095687 
0.000000 
0.000000 
0.057535 
0.049497 
0.035893 
0.060716 
0.000000 
0.135958 
0.136814 
0.000000 
0.131654 
0.000000 
0.057740 
0.021814 
0.026791 
0.080502 
0.000000 
0.101109 
0.065906 
0.039784 
0.010306 
0.011895 
0.023579 
0.071212 
0.000000 
0.000000 
0.049424 
0.024236 
0.027156 
0.053138 
0.000000 
0.000000 
0.000000 
0.062924 
0.026627 
0.041379 
0.046392 
0.044760 
0.065013 
0.025413 
0.000000 
0.018690 
0.058445 
0.000000 
0.051032 
0.055960 
0.063105 
0.086363 
0.000000 
0.085299 
0.060483 
0.000000 
0.126277 
0.000000 
0.067850 
0.022099 
0.000000 
0.015184 
0.047169 
0.072408 
0.000000 
0.043241 
0.029620 
0.042453 
0.055437 
0.000000 
0.000000 
0.000000 
0.105070 
0.000000 
0.047099 
0.038246 
0.022193 
0.023125 
0.058393 
0.000000 
0.044690 
0.018037 
0.032590 
0.000000 
0.098174 
0.000000 
0.078485 
0.032026 
0.038670 
0.077080 
0.087371 
0.000000 
0.000000 
0.000000 
0.085189 
0.085165 
0.000000 
0.000000 
0.069234 
0.036817 
0.053339 
0.076891 
0.000000 
0.080308 
0.000000 
0.076852 
0.042134 
0.055618 
0.048730 
0.038448 
0.077718 
0.000000 
0.000000 
0.000000 
0.104734 
0.000000 
0.044187 
0.016745 
0.038411 
0.000000 
0.000000 
0.000000 
0.000000 
0.085006 
0.000000 
0.000000 
0.000000 
0.036785 
0.087978 
0.087097 
0.035727 
0.023212 
0.039703 
0.035621 
0.068231 
0.105038 
0.000000 
0.060302 
0.022458 
0.037037 
0.000000 
0.058992 
0.000000 
0.031220 
0.011631 
0.033253 
0.000000 
0.096289 
0.070848 
0.000000 
0.000000 
0.057414 
0.055135 
0.035145 
0.030702 
0.074077 
0.000000 
0.074532 
0.031188 
0.013081 
0.000000 
0.000000 
0.023505 
0.051695 
0.054814 
0.041899 
0.061891 
0.000000 
0.048972 
0.056191 
0.057707 
0.059529 
0.061628 
0.049204 
0.028770 
0.029329 
0.034757 
0.018433 
0.023609 
0.042553 
0.040336 
0.017319 
0.020514 
0.059855 
0.000000 
0.102991 
0.065733 
0.029770 
0.047117 
0.000000 
0.091229 
0.000000 
0.157603 
0.000000 
0.103743 
0.000000 
0.110564 
0.000000 
0.053693 
0.024759 
0.049801 
0.000000 
0.076213 
0.040431 
0.052739 
0.056731 
0.061454 
0.000000 
0.000000 
0.044417 
0.041202 
0.079486 
0.092677 
0.000000 
0.058704 
0.042191 
0.014733 
0.000000 
0.014677 
0.049134 
0.079600 
0.102728 
0.114941 
0.000000 
0.031200 
0.018921 
0.015667 
0.052553 
0.000000 
0.000000 
0.060841 
0.055198 
0.000000 
0.058756 
0.068659 
0.103197 
0.000000 
0.062969 
0.025267 
0.023762 
0.035670 
0.029701 
0.032764 
0.011590 
0.000000 
0.020653 
0.071260 
0.000000 
0.087296 
0.068863 
0.054775 
0.035135 
0.050106 
0.045927 
0.028956 
0.054845 
0.000000 
0.052768 
0.032232 
0.037439 
0.015222 
0.011569 
0.040688 
0.000000 
0.087371 
0.081906 
0.000000 
0.066942 
0.042601 
0.049516 
0.032831 
0.043532 
0.000000 
0.051768 
0.054735 
0.071200 
0.000000 
0.036944 
0.022286 
0.036825 
0.000000 
0.028030 
0.010855 
0.024546 
0.065031 
0.000000 
0.000000 
0.043223 
0.046936 
0.000000 
0.072411 
0.108820 
0.000000 
0.000000 
0.101747 
0.000000 
0.073920 
0.059318 
0.045775 
0.024770 
0.046089 
0.000000 
0.072762 
0.031370 
0.039757 
0.000000 
0.069377 
0.000000 
0.073254 
0.029438 
0.036131 
0.000000 
0.051432 
0.044506 
0.016944 
0.000000 
0.000000 
0.000000 
0.000000 
0.027254 
0.074035 
0.000000 
0.000000 
0.085027 
0.000000 
0.060976 
0.036615 
0.059408 
0.000000 
0.000000 
0.067426 
0.076495 
0.000000 
0.082734 
0.000000 
0.000000 
0.000000 
0.081953 
0.060957 
0.048547 
0.032789 
0.035703 
0.018256 
0.000000 
0.000000 
0.015590 
0.057554 
0.000000 
0.000000 
0.090028 
0.063840 
0.052555 
0.000000 
0.000000 
0.051288 
0.052860 
0.058309 
0.045549 
0.071867 
0.000000 
0.043826 
0.026055 
0.060156 
0.110427 
0.000000 
0.000000 
0.099537 
0.064918 
0.082903 
0.000000 
0.049614 
0.036859 
0.069031 
0.060305 
0.000000 
0.000000 
0.097575 
0.044057 
0.036419 
0.024602 
0.030432 
0.010949 
0.000000 
0.000000 
0.019565 
0.043946 
0.045475 
0.019824 
0.020536 
0.046472 
0.049586 
0.000000 
0.085904 
0.089346 
0.073271 
0.000000 
0.054426 
0.046908 
0.000000 
0.037393 
0.033518 
0.064061 
0.000000 
0.033486 
0.019828 
0.032323 
0.030645 
0.055075 
0.049912 
0.020432 
0.018383 
0.038529 
0.027115 
0.018698 
0.000000 
0.000000 
0.000000 
0.000000 
0.000000 
0.033072 
0.000000 
0.081984 
0.077078 
0.040667 
0.087560 
0.000000 
0.078430 
0.064530 
0.065327 
0.062185 
0.050306 
0.000000 
0.077047 
0.067919 
0.066941 
0.088509 
0.000000 
0.118356 
0.000000 
0.000000 
0.066944 
0.000000 
0.033862 
0.017743 
0.029794 
0.027348 
0.050348 
0.072030 
0.092639 
0.000000 
0.000000 
0.054683 
0.061069 
0.079266 
0.058853 
0.000000 
0.080833 
0.082503 
0.000000 
0.000000 
0.051389 
0.043876 
0.000000 
0.000000 
0.000000 
0.106145 
0.000000 
0.113137 
0.000000 
0.000000 
0.062717 
0.054287 
0.000000 
0.058522 
0.067449 
0.107251 
0.000000 
0.072855 
0.000000 
0.033286 
0.017396 
0.000000 
0.000000 
0.000000 
0.000000 
0.019619 
0.035579 
0.017477 
0.018440 
0.037813 
0.028215 
0.042915 
0.055311 
0.000000 
0.062531 
0.070543 
0.033051 
0.032600 
0.064772 
0.040498 
0.044674 
0.033896 
0.033878 
0.015300 
0.011310 
0.012246 
0.023289 
0.062447 
0.000000 
0.034281 
0.023576 
0.049758 
0.058230 
0.046638 
0.026069 
0.031857 
0.017074 
0.000000 
0.000000 
0.025094 
0.065432 
0.064142 
0.000000 
0.040697 
0.048606 
0.079893 
0.000000 
0.000000 
0.057295 
0.046836 
0.030211 
0.042899 
0.058057 
0.000000 
0.061443 
0.050841 
0.087451 
0.000000 
0.000000 
0.089217 
0.047792 
0.060370 
0.030923 
0.034235 
0.000000 
0.062255 
0.000000 
0.075113 
0.077667 
0.000000 
0.081484 
0.040890 
0.056715 
0.000000 
0.064613 
0.078093 
0.000000 
0.000000 
0.074858 
0.051535 
0.019512 
0.017048 
0.040586 
0.052061 
0.051680 
0.043639 
0.080453 
0.000000 
0.000000 
0.093308 
0.061389 
0.059910 
0.000000 
0.049338 
0.052039 
0.000000 
0.000000 
0.056582 
0.039006 
0.024570 
0.030721 
0.011535 
0.000000 
0.000000 
0.011202 
0.030472 
0.000000 
0.036242 
0.041343 
0.000000 
0.035524 
0.027442 
0.046051 
0.057791 
0.070391 
0.000000 
0.043123 
0.051854 
0.000000 
0.083856 
0.000000 
0.051318 
0.020995 
0.018131 
0.034415 
0.022115 
0.036102 
0.000000 
0.063577 
0.028574 
0.040553 
0.000000 
0.000000 
0.000000 
0.068130 
0.000000 
0.059422 
0.026847 
0.020353 
0.041267 
0.000000 
0.069378 
0.049803 
0.028084 
0.031426 
0.064231 
0.000000 
0.085348 
0.051788 
0.000000 
0.040278 
0.029996 
0.048729 
0.000000 
0.087564 
0.070715 
0.081178 
0.111947 
0.000000 
0.068940 
0.054669 
0.000000 
0.044132 
0.029831 
0.045249 
0.055757 
0.068802 
0.000000 
0.072198 
0.000000 
0.061510 
0.052573 
0.069777 
0.000000 
0.069281 
0.068733 
0.080626 
0.057647 
0.031608 
0.015227 
0.000000 
0.000000 
0.000000 
0.000000 
0.000000 
0.013859 
0.050335 
0.000000 
0.085684 
0.065407 
0.000000 
0.068821 
0.051509 
0.021469 
0.019042 
0.044380 
0.050744 
0.022415 
0.017394 
0.033288 
0.000000 
0.032607 
0.014671 
0.014563 
0.030093 
0.025545 
0.038340 
0.030220 
0.051903 
0.065584 
0.031821 
0.035156 
0.000000 
0.062047 
0.000000 
0.061001 
0.036966 
0.060298 
0.000000 
0.103435 
0.000000 
0.079042 
0.032909 
0.043886 
0.000000 
0.049189 
0.036810 
0.069895 
0.058354 
0.028504 
0.026789 
0.070383 
0.000000 
0.077475 
0.055484 
0.089413 
0.000000 
0.072096 
0.059174 
0.059670 