# vtk DataFile Version 3.0
results.vtk
ASCII
DATASET RECTILINEAR_GRID
DIMENSIONS 100 100 1
X_COORDINATES 100 double
0.000000 0.010000 0.020000 0.030000 0.040000 0.050000 0.060000 0.070000 0.080000 0.090000 0.100000 0.110000 0.120000 0.130000 0.140000 0.150000 0.160000 0.170000 0.180000 0.190000 0.200000 0.210000 0.220000 0.230000 0.240000 0.250000 0.260000 0.270000 0.280000 0.290000 0.300000 0.310000 0.320000 0.330000 0.340000 0.350000 0.360000 0.370000 0.380000 0.390000 0.400000 0.410000 0.420000 0.430000 0.440000 0.450000 0.460000 0.470000 0.480000 0.490000 0.500000 0.510000 0.520000 0.530000 0.540000 0.550000 0.560000 0.570000 0.580000 0.590000 0.600000 0.610000 0.620000 0.630000 0.640000 0.650000 0.660000 0.670000 0.680000 0.690000 0.700000 0.710000 0.720000 0.730000 0.740000 0.750000 0.760000 0.770000 0.780000 0.790000 0.800000 0.810000 0.820000 0.830000 0.840000 0.850000 0.860000 0.870000 0.880000 0.890000 0.900000 0.910000 0.920000 0.930000 0.940000 0.950000 0.960000 0.970000 0.980000 0.990000 
Y_COORDINATES 100 double
0.000000 0.010000 0.020000 0.030000 0.040000 0.050000 0.060000 0.070000 0.080000 0.090000 0.100000 0.110000 0.120000 0.130000 0.140000 0.150000 0.160000 0.170000 0.180000 0.190000 0.200000 0.210000 0.220000 0.230000 0.240000 0.250000 0.260000 0.270000 0.280000 0.290000 0.300000 0.310000 0.320000 0.330000 0.340000 0.350000 0.360000 0.370000 0.380000 0.390000 0.400000 0.410000 0.420000 0.430000 0.440000 0.450000 0.460000 0.470000 0.480000 0.490000 0.500000 0.510000 0.520000 0.530000 0.540000 0.550000 0.560000 0.570000 0.580000 0.590000 0.600000 0.610000 0.620000 0.630000 0.640000 0.650000 0.660000 0.670000 0.680000 0.690000 0.700000 0.710000 0.720000 0.730000 0.740000 0.750000 0.760000 0.770000 0.780000 0.790000 0.800000 0.810000 0.820000 0.830000 0.840000 0.850000 0.860000 0.870000 0.880000 0.890000 0.900000 0.910000 0.920000 0.930000 0.940000 0.950000 0.960000 0.970000 0.980000 0.990000 
Z_COORDINATES 1 double
0
POINT_DATA 10000 
FIELD FieldData 1 
Concentração 1 10000 double 
0.153494 
0.000000 
0.188227 
0.093124 
0.000000 
0.088882 
0.136248 
0.182858 
0.000000 
0.059269 
0.033131 
0.176593 
0.000000 
0.116539 
0.000000 
0.000000 
0.000000 
0.129057 
0.000000 
0.000000 
0.143149 
0.000000 
0.000000 
0.089236 
0.173280 
0.000000 
0.059380 
0.020308 
0.112495 
0.024900 
0.019026 
0.128296 
0.143033 
0.128235 
0.018101 
0.021247 
0.167097 
0.000000 
0.060585 
0.059967 
0.000000 
0.080715 
0.132282 
0.127663 
0.016681 
0.000000 
0.000000 
0.067598 
0.000000 
0.000000 
0.000000 
0.140846 
0.000000 
0.055418 
0.000000 
0.000000 
0.000000 
0.022436 
0.192460 
0.000000 
0.145863 
0.000000 
0.088895 
0.132243 
0.127368 
0.018335 
0.018339 
0.120322 
0.032950 
0.112712 
0.016656 
0.007906 
0.000000 
0.006588 
0.003311 
0.063827 
0.000000 
0.055131 
0.000000 
0.000000 
0.007835 
0.016685 
0.113708 
0.045399 
0.185143 
0.000000 
0.128279 
0.000000 
0.061595 
0.072850 
0.000000 
0.000000 
0.075331 
0.001762 
0.001169 
0.071310 
0.000000 
0.072583 
0.012494 
0.000000 
0.193248 
0.000000 
0.000000 
0.129372 
0.000000 
0.124502 
0.000000 
0.000000 
0.116690 
0.024937 
0.121975 
0.000000 
0.121419 
0.021430 
0.073517 
0.136521 
0.141075 
0.086116 
0.074184 
0.076892 
0.129079 
0.000000 
0.133023 
0.129900 
0.000000 
0.168884 
0.028742 
0.062651 
0.000000 
0.116157 
0.072390 
0.000000 
0.000000 
0.000000 
0.065004 
0.065519 
0.000000 
0.112222 
0.012380 
0.012800 
0.068340 
0.123985 
0.000000 
0.000000 
0.060474 
0.000000 
0.006954 
0.064385 
0.076768 
0.136867 
0.000000 
0.140464 
0.069256 
0.007542 
0.000000 
0.000000 
0.000952 
0.073703 
0.000000 
0.000000 
0.145142 
0.000000 
0.124744 
0.000000 
0.000000 
0.069576 
0.073165 
0.000000 
0.120889 
0.000000 
0.064915 
0.060421 
0.015717 
0.056686 
0.016531 
0.068246 
0.063998 
0.006938 
0.000000 
0.006665 
0.059541 
0.064873 
0.000000 
0.176670 
0.000000 
0.000000 
0.076779 
0.065587 
0.021517 
0.069744 
0.127760 
0.000000 
0.065127 
0.007801 
0.007762 
0.064571 
0.000000 
0.072125 
0.060170 
0.007204 
0.000000 
0.180739 
0.085569 
0.077609 
0.069698 
0.017193 
0.064180 
0.065049 
0.021204 
0.067209 
0.000000 
0.000000 
0.079754 
0.009532 
0.065302 
0.000000 
0.000000 
0.000000 
0.077225 
0.065811 
0.000000 
0.124632 
0.082122 
0.000000 
0.176728 
0.000000 
0.125258 
0.080801 
0.124131 
0.000000 
0.064708 
0.068906 
0.076595 
0.069706 
0.017999 
0.072368 
0.119886 
0.020735 
0.008923 
0.060091 
0.068173 
0.000000 
0.127368 
0.123460 
0.016306 
0.000000 
0.055126 
0.000000 
0.064856 
0.077274 
0.000000 
0.000000 
0.072813 
0.008012 
0.000000 
0.000000 
0.012495 
0.132230 
0.000000 
0.000000 
0.133773 
0.073803 
0.021704 
0.065548 
0.073174 
0.080764 
0.128547 
0.000000 
0.080378 
0.119983 
0.072535 
0.000000 
0.111858 
0.000000 
0.119242 
0.000000 
0.067685 
0.000000 
0.000000 
0.055087 
0.000000 
0.068094 
0.123913 
0.000000 
0.128714 
0.073166 
0.018392 
0.072981 
0.124339 
0.000000 
0.069381 
0.065118 
0.017173 
0.064191 
0.064040 
0.017497 
0.068532 
0.064714 
0.000000 
0.059266 
0.168538 
0.000000 
0.124574 
0.000000 
0.072014 
0.003212 
0.000000 
0.012628 
0.066421 
0.088500 
0.185142 
0.000000 
0.065865 
0.002805 
0.016614 
0.124602 
0.000000 
0.000000 
0.073559 
0.017822 
0.065222 
0.073080 
0.081722 
0.000000 
0.088957 
0.129117 
0.000000 
0.000000 
0.127718 
0.068264 
0.008617 
0.013078 
0.069432 
0.076437 
0.069888 
0.000000 
0.000000 
0.064923 
0.063963 
0.000000 
0.064139 
0.064093 
0.068870 
0.000000 
0.057136 
0.006841 
0.007264 
0.055154 
0.007658 
0.013654 
0.127341 
0.000000 
0.076390 
0.060685 
0.006770 
0.000000 
0.060425 
0.000000 
0.000000 
0.192068 
0.000000 
0.069250 
0.061030 
0.017373 
0.072780 
0.000000 
0.000000 
0.128565 
0.069582 
0.000000 
0.072347 
0.115757 
0.024271 
0.061135 
0.071490 
0.000000 
0.067570 
0.000341 
0.000000 
0.006689 
0.055633 
0.012473 
0.068657 
0.000000 
0.073532 
0.017908 
0.062356 
0.000000 
0.000000 
0.178786 
0.021974 
0.013808 
0.065283 
0.000000 
0.000000 
0.068744 
0.068515 
0.016920 
0.056154 
0.006963 
0.024285 
0.062267 
0.072623 
0.000000 
0.123261 
0.012544 
0.001915 
0.065105 
0.000000 
0.000000 
0.000000 
0.177011 
0.021033 
0.008001 
0.057182 
0.024994 
0.070983 
0.080844 
0.073721 
0.068839 
0.068705 
0.000000 
0.131828 
0.000000 
0.077977 
0.073753 
0.000000 
0.174696 
0.000000 
0.060283 
0.007339 
0.060500 
0.000000 
0.000000 
0.084154 
0.124498 
0.076547 
0.018510 
0.068781 
0.068693 
0.012992 
0.003667 
0.016983 
0.115885 
0.024330 
0.057254 
0.011588 
0.000100 
0.000000 
0.007928 
0.068956 
0.080186 
0.120882 
0.000000 
0.056375 
0.000000 
0.011870 
0.119611 
0.000000 
0.085080 
0.120416 
0.072035 
0.000000 
0.064436 
0.069485 
0.000000 
0.183823 
0.084900 
0.018559 
0.061026 
0.068220 
0.000000 
0.060621 
0.007720 
0.009172 
0.071502 
0.065215 
0.016112 
0.055816 
0.007432 
0.006964 
0.000000 
0.016901 
0.123713 
0.080582 
0.066867 
0.033303 
0.180649 
0.000000 
0.000000 
0.069416 
0.069148 
0.080521 
0.128119 
0.076938 
0.072757 
0.000000 
0.064641 
0.012341 
0.001883 
0.058054 
0.017052 
0.018468 
0.123962 
0.000000 
0.068676 
0.014334 
0.080971 
0.192750 
0.000000 
0.240755 
0.000000 
0.062104 
0.060282 
0.000000 
0.112658 
0.028850 
0.121252 
0.000000 
0.000000 
0.073415 
0.077094 
0.129113 
0.000000 
0.070745 
0.017912 
0.061458 
0.020221 
0.056387 
0.006754 
0.000000 
0.016100 
0.119754 
0.000000 
0.120813 
0.000000 
0.120537 
0.076747 
0.000000 
0.131303 
0.068852 
0.013400 
0.068822 
0.000000 
0.120822 
0.000000 
0.112382 
0.016213 
0.008082 
0.056137 
0.000000 
0.116478 
0.000000 
0.170876 
0.020363 
0.000000 
0.000000 
0.012059 
0.064121 
0.064816 
0.000000 
0.064864 
0.067643 
0.064510 
0.021104 
0.121017 
0.000000 
0.000000 
0.072935 
0.017581 
0.064935 
0.071743 
0.064040 
0.008084 
0.012284 
0.115468 
0.000000 
0.115887 
0.000000 
0.063621 
0.059746 
0.011916 
0.061052 
0.000000 
0.000000 
0.000000 
0.173487 
0.000000 
0.184852 
0.081402 
0.069208 
0.000000 
0.000000 
0.000000 
0.073642 
0.069200 
0.000000 
0.072168 
0.068827 
0.072087 
0.000000 
0.120155 
0.073542 
0.081121 
0.000000 
0.123976 
0.080361 
0.000000 
0.000000 
0.000000 
0.000000 
0.172555 
0.021271 
0.016894 
0.111826 
0.000000 
0.113009 
0.000000 
0.175511 
0.084944 
0.081760 
0.125766 
0.000000 
0.180921 
0.089008 
0.070066 
0.013237 
0.002311 
0.000000 
0.000000 
0.007002 
0.056534 
0.020267 
0.061529 
0.020335 
0.112042 
0.000000 
0.123901 
0.000000 
0.000000 
0.000000 
0.072329 
0.123376 
0.000000 
0.084372 
0.172120 
0.000000 
0.120413 
0.068019 
0.016284 
0.056725 
0.020259 
0.120243 
0.000000 
0.068609 
0.000000 
0.000000 
0.000000 
0.000000 
0.007019 
0.056331 
0.016350 
0.060646 
0.000000 
0.057474 
0.024797 
0.121229 
0.000000 
0.127754 
0.069331 
0.000000 
0.115137 
0.000000 
0.059518 
0.059944 
0.000000 
0.120269 
0.079739 
0.068894 
0.064143 
0.000000 
0.060709 
0.017949 
0.077263 
0.131839 
0.129639 
0.000000 
0.232457 
0.000000 
0.074125 
0.014603 
0.073019 
0.136427 
0.139953 
0.074697 
0.022296 
0.068970 
0.068923 
0.000000 
0.000000 
0.174830 
0.000000 
0.000000 
0.128513 
0.127598 
0.000000 
0.120932 
0.000000 
0.196610 
0.149194 
0.134481 
0.000000 
0.065411 
0.060929 
0.019878 
0.057265 
0.019725 
0.112440 
0.000000 
0.128950 
0.000000 
0.000000 
0.177945 
0.000000 
0.000000 
0.000000 
0.076677 
0.060786 
0.016469 
0.063917 
0.064177 
0.000000 
0.057015 
0.012059 
0.003743 
0.011662 
0.056492 
0.017814 
0.080648 
0.128463 
0.076403 
0.065275 
0.000000 
0.119819 
0.074115 
0.000000 
0.176490 
0.000000 
0.000000 
0.059909 
0.006781 
0.002437 
0.068147 
0.000000 
0.123130 
0.012856 
0.000000 
0.000000 
0.000000 
0.000000 
0.011876 
0.060578 
0.016533 
0.056682 
0.016415 
0.061671 
0.025528 
0.124329 
0.000000 
0.076954 
0.065362 
0.016645 
0.055801 
0.006962 
0.007255 
0.060735 
0.075583 
0.000000 
0.068355 
0.013258 
0.064342 
0.072319 
0.076682 
0.124410 
0.000000 
0.081106 
0.177093 
0.000000 
0.000000 
0.124451 
0.021357 
0.066870 
0.000000 
0.000000 
0.000000 
0.124501 
0.072565 
0.017739 
0.064859 
0.071889 
0.023476 
0.080761 
0.175339 
0.000000 
0.068884 
0.061062 
0.021150 
0.128868 
0.000000 
0.000000 
0.136657 
0.128394 
0.072993 
0.000000 
0.056790 
0.007263 
0.002453 
0.012537 
0.065548 
0.081488 
0.000000 
0.184666 
0.047030 
0.193970 
0.000000 
0.000000 
0.128600 
0.000000 
0.119394 
0.000000 
0.076029 
0.062072 
0.020538 
0.064753 
0.063371 
0.007986 
0.000590 
0.012487 
0.115940 
0.000000 
0.065264 
0.012477 
0.056770 
0.021014 
0.073352 
0.129089 
0.092747 
0.129583 
0.076097 
0.008496 
0.000000 
0.000000 
0.016869 
0.123725 
0.000000 
0.076661 
0.065026 
0.012097 
0.000000 
0.000000 
0.063454 
0.000000 
0.068267 
0.013722 
0.068491 
0.000000 
0.068985 
0.072981 
0.000000 
0.131769 
0.073257 
0.013064 
0.000000 
0.000000 
0.001242 
0.012558 
0.064858 
0.000000 
0.068477 
0.013283 
0.064486 
0.000000 
0.000000 
0.000000 
0.123882 
0.070306 
0.000000 
0.180702 
0.140542 
0.000000 
0.113760 
0.032901 
0.176462 
0.000000 
0.179815 
0.000000 
0.000000 
0.064897 
0.012573 
0.002009 
0.025180 
0.117068 
0.000000 
0.112234 
0.012483 
0.007499 
0.004448 
0.076404 
0.000000 
0.187040 
0.000000 
0.000000 
0.077301 
0.119421 
0.017425 
0.012738 
0.056511 
0.016494 
0.065141 
0.076791 
0.000000 
0.000000 
0.130319 
0.000000 
0.000000 
0.145116 
0.078004 
0.069321 
0.073518 
0.000000 
0.125647 
0.033438 
0.117073 
0.000000 
0.000000 
0.063619 
0.008090 
0.060233 
0.000000 
0.119354 
0.067666 
0.008043 
0.007076 
0.060260 
0.000000 
0.000000 
0.000000 
0.000000 
0.120421 
0.012228 
0.000000 
0.006722 
0.060615 
0.076703 
0.000000 
0.183247 
0.000000 
0.119706 
0.011855 
0.000000 
0.063805 
0.000000 
0.120100 
0.025692 
0.124676 
0.000000 
0.065574 
0.018315 
0.131546 
0.000000 
0.000000 
0.115657 
0.012031 
0.008738 
0.068042 
0.068865 
0.018135 
0.068748 
0.072142 
0.064674 
0.017160 
0.065265 
0.076221 
0.073863 
0.072962 
0.021521 
0.113198 
0.000000 
0.140475 
0.180133 
0.000000 
0.117750 
0.000000 
0.121119 
0.025454 
0.065679 
0.072776 
0.076122 
0.064727 
0.007788 
0.112456 
0.000000 
0.112197 
0.015887 
0.008208 
0.055685 
0.011773 
0.064776 
0.000000 
0.078045 
0.081023 
0.124752 
0.080760 
0.000000 
0.076680 
0.119855 
0.000000 
0.112491 
0.000000 
0.065498 
0.072563 
0.073349 
0.077419 
0.000000 
0.000000 
0.133747 
0.000000 
0.066444 
0.030200 
0.180312 
0.000000 
0.180856 
0.000000 
0.121045 
0.079601 
0.065408 
0.016622 
0.064300 
0.068144 
0.068048 
0.000000 
0.055147 
0.000000 
0.007252 
0.064791 
0.077084 
0.084730 
0.175533 
0.000000 
0.060712 
0.007016 
0.055443 
0.000000 
0.072588 
0.124485 
0.000000 
0.000000 
0.000000 
0.059911 
0.000000 
0.011858 
0.115813 
0.000000 
0.122300 
0.000000 
0.183645 
0.022268 
0.014562 
0.128129 
0.000000 
0.179587 
0.000000 
0.061350 
0.072674 
0.000000 
0.000000 
0.076946 
0.069131 
0.000000 
0.000000 
0.064905 
0.017243 
0.065725 
0.076241 
0.000000 
0.064974 
0.021266 
0.124380 
0.000000 
0.000000 
0.125503 
0.081033 
0.077682 
0.068996 
0.009704 
0.013352 
0.072890 
0.000000 
0.000000 
0.064160 
0.020498 
0.057811 
0.016383 
0.003679 
0.060166 
0.000000 
0.055878 
0.011926 
0.061186 
0.025964 
0.117015 
0.000000 
0.120478 
0.000000 
0.127838 
0.000000 
0.120969 
0.033067 
0.112488 
0.016743 
0.013385 
0.060724 
0.018087 
0.077470 
0.133012 
0.089407 
0.129010 
0.084502 
0.125624 
0.000000 
0.000000 
0.000000 
0.125805 
0.029207 
0.116594 
0.000000 
0.111670 
0.000000 
0.060320 
0.012055 
0.055376 
0.006406 
0.000000 
0.000000 
0.017018 
0.065234 
0.069362 
0.000000 
0.119706 
0.067371 
0.007756 
0.008424 
0.068195 
0.065179 
0.021112 
0.066346 
0.080300 
0.065150 
0.007255 
0.000000 
0.000000 
0.020606 
0.122241 
0.097443 
0.000000 
0.000000 
0.074458 
0.069193 
0.000000 
0.137549 
0.086495 
0.071017 
0.019073 
0.077835 
0.000000 
0.000000 
0.124925 
0.021407 
0.064883 
0.072404 
0.072834 
0.065633 
0.000000 
0.120563 
0.000000 
0.065062 
0.014657 
0.073603 
0.000000 
0.124647 
0.080958 
0.000000 
0.178683 
0.000000 
0.064563 
0.064970 
0.077257 
0.000000 
0.123800 
0.013060 
0.072905 
0.021559 
0.072238 
0.015149 
0.081616 
0.063087 
0.006888 
0.000000 
0.015522 
0.129713 
0.000000 
0.111983 
0.020409 
0.064659 
0.071748 
0.000000 
0.078807 
0.131748 
0.000000 
0.060726 
0.062376 
0.000000 
0.063188 
0.071414 
0.000000 
0.000000 
0.000000 
0.000000 
0.000000 
0.136145 
0.212957 
0.000000 
0.079849 
0.061668 
0.000000 
0.114118 
0.020079 
0.059208 
0.010417 
0.000000 
0.000000 
0.000000 
0.000000 
0.013637 
0.126231 
0.000000 
0.064042 
0.064231 
0.067459 
0.000000 
0.055977 
0.018304 
0.130191 
0.000000 
0.056788 
0.015681 
0.076205 
0.014323 
0.000000 
0.000000 
0.000000 
0.063916 
0.000000 
0.202916 
0.000000 
0.000000 
0.080527 
0.071929 
0.000000 
0.201232 
0.000000 
0.145988 
0.090849 
0.080535 
0.000000 
0.186338 
0.000000 
0.059987 
0.012883 
0.070332 
0.000000 
0.078412 
0.131703 
0.034689 
0.134450 
0.023987 
0.079684 
0.087123 
0.071262 
0.020503 
0.068831 
0.000000 
0.000000 
0.119375 
0.068192 
0.000000 
0.135434 
0.081871 
0.083807 
0.007478 
0.000000 
0.136735 
0.000000 
0.094594 
0.000000 
0.051340 
0.000000 
0.000000 
0.050902 
0.000000 
0.085504 
0.009541 
0.000000 
0.000000 
0.003107 
0.040277 
0.050093 
0.000000 
0.127359 
0.012473 
0.051615 
0.045024 
0.053318 
0.055020 
0.044243 
0.046109 
0.044607 
0.044349 
0.044083 
0.054420 
0.000000 
0.000000 
0.051820 
0.007310 
0.041740 
0.051968 
0.007122 
0.051349 
0.049107 
0.004401 
0.004253 
0.045705 
0.009836 
0.091414 
0.000000 
0.081891 
0.005083 
0.003408 
0.005319 
0.036405 
0.008558 
0.091315 
0.000000 
0.083542 
0.006858 
0.045892 
0.000000 
0.090960 
0.004115 
0.000000 
0.000000 
0.051018 
0.000000 
0.000000 
0.184661 
0.000000 
0.057190 
0.053555 
0.091288 
0.000000 
0.000000 
0.000000 
0.000000 
0.100534 
0.000000 
0.059913 
0.087375 
0.054659 
0.008832 
0.095197 
0.000000 
0.097332 
0.000000 
0.142182 
0.000000 
0.096711 
0.000000 
0.000000 
0.098636 
0.051194 
0.007456 
0.042565 
0.040729 
0.008303 
0.011106 
0.129230 
0.000000 
0.139489 
0.000000 
0.047326 
0.136635 
0.000000 
0.092982 
0.055746 
0.000000 
0.048875 
0.000000 
0.004272 
0.095897 
0.000000 
0.054015 
0.049001 
0.001505 
0.000000 
0.000000 
0.000000 
0.004156 
0.090970 
0.000000 
0.094707 
0.000000 
0.144508 
0.000000 
0.000000 
0.055773 
0.050640 
0.004371 
0.004154 
0.047015 
0.006615 
0.050940 
0.052251 
0.006720 
0.050668 
0.095625 
0.000000 
0.094270 
0.000000 
0.000000 
0.097509 
0.096098 
0.000000 
0.138248 
0.000000 
0.136379 
0.009606 
0.002230 
0.048830 
0.050556 
0.006107 
0.045784 
0.000000 
0.094415 
0.052048 
0.004524 
0.004187 
0.090833 
0.000000 
0.048953 
0.047088 
0.004073 
0.002145 
0.051920 
0.096275 
0.000000 
0.000000 
0.096076 
0.000000 
0.095952 
0.056064 
0.055893 
0.099532 
0.000000 
0.055896 
0.096039 
0.056107 
0.000000 
0.000000 
0.097881 
0.000000 
0.141223 
0.059292 
0.099742 
0.000000 
0.000000 
0.057621 
0.097818 
0.099477 
0.000000 
0.000000 
0.047200 
0.001199 
0.004121 
0.050728 
0.097936 
0.000000 
0.187080 
0.000000 
0.091255 
0.006371 
0.017045 
0.093153 
0.012096 
0.054518 
0.097612 
0.006499 
0.000000 
0.048960 
0.000000 
0.144698 
0.057676 
0.000000 
0.048755 
0.004155 
0.045220 
0.000963 
0.000000 
0.008019 
0.092842 
0.059096 
0.000000 
0.000000 
0.149891 
0.000000 
0.102872 
0.000000 
0.050497 
0.047175 
0.000000 
0.048979 
0.052336 
0.052453 
0.050690 
0.000000 
0.000000 
0.096115 
0.055783 
0.054373 
0.097786 
0.000000 
0.000000 
0.186696 
0.000000 
0.139930 
0.000000 
0.047339 
0.048825 
0.000000 
0.000000 
0.050674 
0.008195 
0.092557 
0.054119 
0.000000 
0.092455 
0.004678 
0.009948 
0.092642 
0.052285 
0.000000 
0.090646 
0.004159 
0.002238 
0.006585 
0.050897 
0.050780 
0.008237 
0.090902 
0.000000 
0.092783 
0.010265 
0.050909 
0.052305 
0.049380 
0.000000 
0.096468 
0.104533 
0.000000 
0.102796 
0.098030 
0.000000 
0.000000 
0.097812 
0.000000 
0.099533 
0.052865 
0.000000 
0.056130 
0.099608 
0.099266 
0.006545 
0.000000 
0.048746 
0.000000 
0.000000 
0.000000 
0.000000 
0.141744 
0.013662 
0.049179 
0.143282 
0.000000 
0.099796 
0.000000 
0.000000 
0.050702 
0.002115 
0.052312 
0.000000 
0.000000 
0.099471 
0.000000 
0.050425 
0.047047 
0.000000 
0.045157 
0.000990 
0.045588 
0.000000 
0.096203 
0.101227 
0.000000 
0.146833 
0.000000 
0.144876 
0.000000 
0.049116 
0.006278 
0.047234 
0.050460 
0.000000 
0.000000 
0.050866 
0.052265 
0.051031 
0.055706 
0.000000 
0.055958 
0.056114 
0.099443 
0.099604 
0.000000 
0.000000 
0.057400 
0.047467 
0.001860 
0.006289 
0.094213 
0.000000 
0.050574 
0.047212 
0.000000 
0.054152 
0.141173 
0.000000 
0.054109 
0.092732 
0.000000 
0.050659 
0.092510 
0.000000 
0.049083 
0.050575 
0.052464 
0.052553 
0.006645 
0.000000 
0.006104 
0.090787 
0.000000 
0.092563 
0.000000 
0.047369 
0.010056 
0.138055 
0.000000 
0.144959 
0.000000 
0.000000 
0.055872 
0.096040 
0.052576 
0.012123 
0.096363 
0.057828 
0.057956 
0.101448 
0.101534 
0.000000 
0.000000 
0.052504 
0.004549 
0.049011 
0.054031 
0.054365 
0.101010 
0.000000 
0.000000 
0.096357 
0.000000 
0.000000 
0.000000 
0.104750 
0.000000 
0.000000 
0.052643 
0.006675 
0.052678 
0.101050 
0.000000 
0.052561 
0.050525 
0.001891 
0.001190 
0.045154 
0.000958 
0.000000 
0.006228 
0.092591 
0.000000 
0.055992 
0.143179 
0.000000 
0.145004 
0.000000 
0.097785 
0.008381 
0.045728 
0.006365 
0.004793 
0.052379 
0.096054 
0.011995 
0.047837 
0.011877 
0.094686 
0.000000 
0.141343 
0.000000 
0.000000 
0.052657 
0.056030 
0.099398 
0.052677 
0.006586 
0.004353 
0.045759 
0.010051 
0.049233 
0.004403 
0.001540 
0.047040 
0.050638 
0.000000 
0.000000 
0.097773 
0.000000 
0.090848 
0.004390 
0.008131 
0.092552 
0.053950 
0.000000 
0.000000 
0.000000 
0.099424 
0.050523 
0.002078 
0.004221 
0.048998 
0.052158 
0.048871 
0.004309 
0.049279 
0.000000 
0.144958 
0.000000 
0.099611 
0.054261 
0.050944 
0.000000 
0.052392 
0.094530 
0.000000 
0.000000 
0.000000 
0.000000 
0.000000 
0.150158 
0.000000 
0.101227 
0.052668 
0.000000 
0.092510 
0.006458 
0.004943 
0.055825 
0.098072 
0.059352 
0.101297 
0.104658 
0.101441 
0.059732 
0.000000 
0.103089 
0.056125 
0.097784 
0.000000 
0.099516 
0.052652 
0.008474 
0.047448 
0.004136 
0.000000 
0.000000 
0.000000 
0.001616 
0.049024 
0.055599 
0.050889 
0.050845 
0.000000 
0.000000 
0.101108 
0.000000 
0.097612 
0.050947 
0.000000 
0.096158 
0.054210 
0.054461 
0.000000 
0.141458 
0.000000 
0.138140 
0.000000 
0.138043 
0.000000 
0.096118 
0.052483 
0.008557 
0.094357 
0.000000 
0.000000 
0.097525 
0.095973 
0.000000 
0.094684 
0.057311 
0.049100 
0.001649 
0.001332 
0.001648 
0.049073 
0.055816 
0.055981 
0.094343 
0.008097 
0.000000 
0.045444 
0.000000 
0.050931 
0.054296 
0.102830 
0.000000 
0.000000 
0.000000 
0.048916 
0.004566 
0.048933 
0.000000 
0.046979 
0.002170 
0.054055 
0.000000 
0.148104 
0.000000 
0.054471 
0.052603 
0.052517 
0.052515 
0.051022 
0.000000 
0.141390 
0.104624 
0.000000 
0.000000 
0.000000 
0.152108 
0.000000 
0.000000 
0.102796 
0.096115 
0.000000 
0.045576 
0.006457 
0.096079 
0.000000 
0.000000 
0.000000 
0.000000 
0.000000 
0.099568 
0.000000 
0.103006 
0.000000 
0.000000 
0.000000 
0.000000 
0.054212 
0.094520 
0.000000 
0.092604 
0.004237 
0.001500 
0.046985 
0.050548 
0.000000 
0.000000 
0.052239 
0.004487 
0.048880 
0.050736 
0.010217 
0.092629 
0.000000 
0.054214 
0.143125 
0.000000 
0.000000 
0.101354 
0.000000 
0.000000 
0.146527 
0.000000 
0.094514 
0.010027 
0.049286 
0.054038 
0.052545 
0.050822 
0.000000 
0.095853 
0.097523 
0.000000 
0.000000 
0.141597 
0.000000 
0.000000 
0.000000 
0.050676 
0.047000 
0.001649 
0.006336 
0.094374 
0.000000 
0.000000 
0.047083 
0.000000 
0.004175 
0.049171 
0.054044 
0.052682 
0.054503 
0.000000 
0.143172 
0.057657 
0.054458 
0.054329 
0.054201 
0.048965 
0.002143 
0.006413 
0.097773 
0.000000 
0.000000 
0.141360 
0.055953 
0.000000 
0.000000 
0.099390 
0.055863 
0.094425 
0.000000 
0.052857 
0.103057 
0.000000 
0.000000 
0.000000 
0.192157 
0.000000 
0.000000 
0.055817 
0.047281 
0.004304 
0.050751 
0.000000 
0.099646 
0.055958 
0.052644 
0.052244 
0.050716 
0.052495 
0.000000 
0.101260 
0.099526 
0.055981 
0.054088 
0.050842 
0.052632 
0.000000 
0.188346 
0.000000 
0.050826 
0.047071 
0.000000 
0.052288 
0.096040 
0.000000 
0.048965 
0.000000 
0.000000 
0.006229 
0.045822 
0.008208 
0.049168 
0.052722 
0.000000 
0.000000 
0.000000 
0.059519 
0.143351 
0.000000 
0.144957 
0.000000 
0.050558 
0.002113 
0.048673 
0.000000 
0.000000 
0.095818 
0.050586 
0.004636 
0.006587 
0.052513 
0.097943 
0.062620 
0.143502 
0.000000 
0.141421 
0.053988 
0.000000 
0.046978 
0.047258 
0.000000 
0.139466 
0.053865 
0.001720 
0.001204 
0.047348 
0.057261 
0.000000 
0.000000 
0.052421 
0.094478 
0.000000 
0.098204 
0.000000 
0.000000 
0.000000 
0.052732 
0.008407 
0.094474 
0.000000 
0.101212 
0.096176 
0.000000 
0.054335 
0.097822 
0.102658 
0.000000 
0.000000 
0.052400 
0.049157 
0.006621 
0.051088 
0.000000 
0.150025 
0.148667 
0.000000 
0.148481 
0.000000 
0.052426 
0.001832 
0.004362 
0.097585 
0.000000 
0.102918 
0.052818 
0.006796 
0.000000 
0.000000 
0.004327 
0.094213 
0.000000 
0.000000 
0.049051 
0.002019 
0.004403 
0.050682 
0.000000 
0.000000 
0.000000 
0.054109 
0.004446 
0.048755 
0.049116 
0.011808 
0.092602 
0.006223 
0.000000 
0.003999 
0.090786 
0.000000 
0.049323 
0.052346 
0.054166 
0.097943 
0.000000 
0.097783 
0.051103 
0.000000 
0.185086 
0.000000 
0.092626 
0.004219 
0.000000 
0.001594 
0.050459 
0.095813 
0.000000 
0.047425 
0.006269 
0.047367 
0.052338 
0.000000 
0.000000 
0.000000 
0.141468 
0.000000 
0.049055 
0.047140 
0.004179 
0.004142 
0.090733 
0.000000 
0.048974 
0.001341 
0.045359 
0.000000 
0.139759 
0.000000 
0.096062 
0.004689 
0.008328 
0.094560 
0.061017 
0.000000 
0.000000 
0.000000 
0.059487 
0.096389 
0.000000 
0.000000 
0.055864 
0.006671 
0.050772 
0.095997 
0.000000 
0.096173 
0.000000 
0.095967 
0.008677 
0.052310 
0.049119 
0.008343 
0.094542 
0.000000 
0.000000 
0.000000 
0.104530 
0.000000 
0.048827 
0.001429 
0.047068 
0.000000 
0.000000 
0.000000 
0.000000 
0.097746 
0.000000 
0.000000 
0.000000 
0.008410 
0.099436 
0.099347 
0.006619 
0.001959 
0.047083 
0.006691 
0.054350 
0.103165 
0.000000 
0.052520 
0.001856 
0.047060 
0.000000 
0.090869 
0.000000 
0.045368 
0.000995 
0.045462 
0.000000 
0.139634 
0.057396 
0.000000 
0.000000 
0.052390 
0.050893 
0.006588 
0.004532 
0.094405 
0.000000 
0.094458 
0.006362 
0.000000 
0.000000 
0.000000 
0.004380 
0.050713 
0.050906 
0.010095 
0.090948 
0.000000 
0.049204 
0.052380 
0.052428 
0.052587 
0.054082 
0.049146 
0.004592 
0.006306 
0.045489 
0.001517 
0.004193 
0.048868 
0.048725 
0.001489 
0.004011 
0.090869 
0.000000 
0.141414 
0.055680 
0.004619 
0.049019 
0.000000 
0.098198 
0.000000 
0.193790 
0.000000 
0.101643 
0.000000 
0.143166 
0.000000 
0.050781 
0.002189 
0.050569 
0.000000 
0.095959 
0.008506 
0.050775 
0.052457 
0.054086 
0.000000 
0.000000 
0.047475 
0.010048 
0.096135 
0.101085 
0.000000 
0.052511 
0.048817 
0.001500 
0.000000 
0.001401 
0.049155 
0.059296 
0.103041 
0.144751 
0.000000 
0.045451 
0.004002 
0.000000 
0.050727 
0.000000 
0.000000 
0.052631 
0.052266 
0.000000 
0.052474 
0.054426 
0.103044 
0.000000 
0.052653 
0.002104 
0.004193 
0.045621 
0.007971 
0.045481 
0.000997 
0.000000 
0.004112 
0.094348 
0.000000 
0.098024 
0.055868 
0.050859 
0.006693 
0.050602 
0.048931 
0.004566 
0.052246 
0.000000 
0.050707 
0.006494 
0.047069 
0.001387 
0.000000 
0.047271 
0.000000 
0.099356 
0.096297 
0.000000 
0.091233 
0.010102 
0.049169 
0.006516 
0.047390 
0.000000 
0.050763 
0.052247 
0.094324 
0.000000 
0.045634 
0.004137 
0.047128 
0.000000 
0.045160 
0.000000 
0.006129 
0.092569 
0.000000 
0.000000 
0.048767 
0.050430 
0.000000 
0.057443 
0.141607 
0.000000 
0.000000 
0.102889 
0.000000 
0.057562 
0.052586 
0.048969 
0.004252 
0.049011 
0.000000 
0.095813 
0.006463 
0.047226 
0.000000 
0.094205 
0.000000 
0.095852 
0.006289 
0.045565 
0.000000 
0.050706 
0.048834 
0.001719 
0.000000 
0.000000 
0.000000 
0.000000 
0.006278 
0.094424 
0.000000 
0.000000 
0.097792 
0.000000 
0.090924 
0.008283 
0.052555 
0.000000 
0.000000 
0.055818 
0.096029 
0.000000 
0.097732 
0.000000 
0.000000 
0.000000 
0.059386 
0.052564 
0.049103 
0.008110 
0.045658 
0.004006 
0.000000 
0.000000 
0.000000 
0.053819 
0.000000 
0.000000 
0.099554 
0.054207 
0.050733 
0.000000 
0.000000 
0.050673 
0.050807 
0.052483 
0.010344 
0.094308 
0.000000 
0.048882 
0.004483 
0.054016 
0.144570 
0.000000 
0.000000 
0.138316 
0.017121 
0.096324 
0.000000 
0.049165 
0.008333 
0.094173 
0.054037 
0.000000 
0.000000 
0.139695 
0.011726 
0.045665 
0.006130 
0.045348 
0.000972 
0.000000 
0.000000 
0.004165 
0.048939 
0.050382 
0.001628 
0.001723 
0.050392 
0.049230 
0.000000 
0.097902 
0.099409 
0.056153 
0.000000 
0.050853 
0.049030 
0.000000 
0.045679 
0.008152 
0.092520 
0.000000 
0.045441 
0.004055 
0.045395 
0.006435 
0.052367 
0.050640 
0.001759 
0.001444 
0.047109 
0.004498 
0.001729 
0.000000 
0.000000 
0.000000 
0.000000 
0.000000 
0.045535 
0.000000 
0.097728 
0.095967 
0.008511 
0.136309 
0.000000 
0.096048 
0.054169 
0.054339 
0.054133 
0.049242 
0.000000 
0.096081 
0.055778 
0.054350 
0.097974 
0.000000 
0.144915 
0.000000 
0.000000 
0.092665 
0.000000 
0.045551 
0.004015 
0.045294 
0.006246 
0.049221 
0.057460 
0.099734 
0.000000 
0.000000 
0.050869 
0.054087 
0.097517 
0.052561 
0.000000 
0.097566 
0.097662 
0.000000 
0.000000 
0.052126 
0.048848 
0.000000 
0.000000 
0.000000 
0.141491 
0.000000 
0.143245 
0.000000 
0.000000 
0.054138 
0.050909 
0.000000 
0.052591 
0.055832 
0.142989 
0.000000 
0.094477 
0.000000 
0.045517 
0.004012 
0.000000 
0.000000 
0.000000 
0.000000 
0.004174 
0.046956 
0.001335 
0.001450 
0.047061 
0.006291 
0.047412 
0.052315 
0.000000 
0.054145 
0.094160 
0.006516 
0.006512 
0.092442 
0.010063 
0.047444 
0.008203 
0.045436 
0.001049 
0.000000 
0.000000 
0.004233 
0.092354 
0.000000 
0.045455 
0.004247 
0.050609 
0.053861 
0.048983 
0.006250 
0.045422 
0.004032 
0.000000 
0.000000 
0.006191 
0.092538 
0.055704 
0.000000 
0.047208 
0.012063 
0.096989 
0.000000 
0.000000 
0.052881 
0.049418 
0.006510 
0.047836 
0.054341 
0.000000 
0.053038 
0.010701 
0.097302 
0.000000 
0.000000 
0.100324 
0.012128 
0.091592 
0.008179 
0.045863 
0.000000 
0.093103 
0.000000 
0.095226 
0.059749 
0.000000 
0.098454 
0.008692 
0.051419 
0.000000 
0.054742 
0.096857 
0.000000 
0.000000 
0.096701 
0.052574 
0.001966 
0.001609 
0.049207 
0.052777 
0.051283 
0.010358 
0.096990 
0.000000 
0.000000 
0.101985 
0.053140 
0.054481 
0.000000 
0.050945 
0.051148 
0.000000 
0.000000 
0.054222 
0.047651 
0.006256 
0.045675 
0.001077 
0.000000 
0.000000 
0.001060 
0.045639 
0.000000 
0.047391 
0.049158 
0.000000 
0.045925 
0.006363 
0.049449 
0.054453 
0.095001 
0.000000 
0.047751 
0.051116 
0.000000 
0.098578 
0.000000 
0.051082 
0.001841 
0.001507 
0.047243 
0.004325 
0.045903 
0.000000 
0.093244 
0.006389 
0.047574 
0.000000 
0.000000 
0.000000 
0.093432 
0.000000 
0.091487 
0.006339 
0.002102 
0.047664 
0.000000 
0.094918 
0.051072 
0.004619 
0.002833 
0.054609 
0.000000 
0.100082 
0.051110 
0.000000 
0.047612 
0.006519 
0.049526 
0.000000 
0.100175 
0.055035 
0.059873 
0.144260 
0.000000 
0.054901 
0.049812 
0.000000 
0.047838 
0.006519 
0.049418 
0.054307 
0.094925 
0.000000 
0.095024 
0.000000 
0.054578 
0.049749 
0.057869 
0.000000 
0.056441 
0.056436 
0.098397 
0.052931 
0.006605 
0.000000 
0.000000 
0.000000 
0.000000 
0.000000 
0.000000 
0.000000 
0.051025 
0.000000 
0.098644 
0.054760 
0.000000 
0.094888 
0.052548 
0.001916 
0.001734 
0.049282 
0.052503 
0.002080 
0.001315 
0.045794 
0.000000 
0.045763 
0.001254 
0.001344 
0.045577 
0.006357 
0.047562 
0.006643 
0.052661 
0.094754 
0.008274 
0.045924 
0.000000 
0.093103 
0.000000 
0.091540 
0.008473 
0.053034 
0.000000 
0.105404 
0.000000 
0.098265 
0.006664 
0.049217 
0.000000 
0.051017 
0.008549 
0.094939 
0.054385 
0.004667 
0.004445 
0.094920 
0.000000 
0.095405 
0.015485 
0.137385 
0.000000 
0.095095 
0.054414 
0.054522 