# vtk DataFile Version 3.0
results.vtk
ASCII
DATASET RECTILINEAR_GRID
DIMENSIONS 100 100 1
X_COORDINATES 100 double
0.000000 0.010000 0.020000 0.030000 0.040000 0.050000 0.060000 0.070000 0.080000 0.090000 0.100000 0.110000 0.120000 0.130000 0.140000 0.150000 0.160000 0.170000 0.180000 0.190000 0.200000 0.210000 0.220000 0.230000 0.240000 0.250000 0.260000 0.270000 0.280000 0.290000 0.300000 0.310000 0.320000 0.330000 0.340000 0.350000 0.360000 0.370000 0.380000 0.390000 0.400000 0.410000 0.420000 0.430000 0.440000 0.450000 0.460000 0.470000 0.480000 0.490000 0.500000 0.510000 0.520000 0.530000 0.540000 0.550000 0.560000 0.570000 0.580000 0.590000 0.600000 0.610000 0.620000 0.630000 0.640000 0.650000 0.660000 0.670000 0.680000 0.690000 0.700000 0.710000 0.720000 0.730000 0.740000 0.750000 0.760000 0.770000 0.780000 0.790000 0.800000 0.810000 0.820000 0.830000 0.840000 0.850000 0.860000 0.870000 0.880000 0.890000 0.900000 0.910000 0.920000 0.930000 0.940000 0.950000 0.960000 0.970000 0.980000 0.990000 
Y_COORDINATES 100 double
0.000000 0.010000 0.020000 0.030000 0.040000 0.050000 0.060000 0.070000 0.080000 0.090000 0.100000 0.110000 0.120000 0.130000 0.140000 0.150000 0.160000 0.170000 0.180000 0.190000 0.200000 0.210000 0.220000 0.230000 0.240000 0.250000 0.260000 0.270000 0.280000 0.290000 0.300000 0.310000 0.320000 0.330000 0.340000 0.350000 0.360000 0.370000 0.380000 0.390000 0.400000 0.410000 0.420000 0.430000 0.440000 0.450000 0.460000 0.470000 0.480000 0.490000 0.500000 0.510000 0.520000 0.530000 0.540000 0.550000 0.560000 0.570000 0.580000 0.590000 0.600000 0.610000 0.620000 0.630000 0.640000 0.650000 0.660000 0.670000 0.680000 0.690000 0.700000 0.710000 0.720000 0.730000 0.740000 0.750000 0.760000 0.770000 0.780000 0.790000 0.800000 0.810000 0.820000 0.830000 0.840000 0.850000 0.860000 0.870000 0.880000 0.890000 0.900000 0.910000 0.920000 0.930000 0.940000 0.950000 0.960000 0.970000 0.980000 0.990000 
Z_COORDINATES 1 double
0
POINT_DATA 10000 
FIELD FieldData 1 
Concentração 1 10000 double 
0.002095 
0.000000 
0.001892 
0.001710 
0.000000 
0.001433 
0.001373 
0.001341 
0.000000 
0.001364 
0.001454 
0.001488 
0.000000 
0.001354 
0.000000 
0.000000 
0.000000 
0.001661 
0.000000 
0.000000 
0.001591 
0.000000 
0.000000 
0.001711 
0.001638 
0.000000 
0.001343 
0.001226 
0.001166 
0.001144 
0.001180 
0.001272 
0.001327 
0.001276 
0.001172 
0.001105 
0.001059 
0.000000 
0.000887 
0.000893 
0.000000 
0.001138 
0.001168 
0.000985 
0.000572 
0.000000 
0.000412 
0.000800 
0.000000 
0.000000 
0.000000 
0.001488 
0.000000 
0.000552 
0.000000 
0.000000 
0.000000 
0.001083 
0.001761 
0.000000 
0.001973 
0.000000 
0.001550 
0.001418 
0.001342 
0.001302 
0.001299 
0.001293 
0.001225 
0.001100 
0.000946 
0.000812 
0.000730 
0.000713 
0.000731 
0.000714 
0.000000 
0.000322 
0.000000 
0.000000 
0.000489 
0.000866 
0.001205 
0.001466 
0.001584 
0.000000 
0.001401 
0.000000 
0.001242 
0.001257 
0.000000 
0.000000 
0.001019 
0.000870 
0.000829 
0.000881 
0.000000 
0.000798 
0.000523 
0.000000 
0.002011 
0.000000 
0.000000 
0.001643 
0.000000 
0.001356 
0.000000 
0.000000 
0.001312 
0.001385 
0.001484 
0.000000 
0.001395 
0.001317 
0.001395 
0.001573 
0.001683 
0.001646 
0.001538 
0.001487 
0.001538 
0.000000 
0.001691 
0.001697 
0.000000 
0.001520 
0.001374 
0.001257 
0.000000 
0.001135 
0.001148 
0.000000 
0.000000 
0.000000 
0.001169 
0.001111 
0.000000 
0.000972 
0.000887 
0.000890 
0.000990 
0.001113 
0.000000 
0.000000 
0.000593 
0.000000 
0.000425 
0.000770 
0.001111 
0.001426 
0.000000 
0.001448 
0.001066 
0.000556 
0.000000 
0.000000 
0.000460 
0.001191 
0.000000 
0.000000 
0.001916 
0.000000 
0.001488 
0.000000 
0.000000 
0.001319 
0.001331 
0.000000 
0.001242 
0.000000 
0.000972 
0.000848 
0.000771 
0.000754 
0.000768 
0.000743 
0.000598 
0.000331 
0.000000 
0.000210 
0.000540 
0.000871 
0.000000 
0.001435 
0.000000 
0.000000 
0.001384 
0.001300 
0.001272 
0.001272 
0.001251 
0.000000 
0.001019 
0.000894 
0.000856 
0.000892 
0.000000 
0.000813 
0.000615 
0.000393 
0.000000 
0.001750 
0.001640 
0.001490 
0.001325 
0.001190 
0.001147 
0.001199 
0.001315 
0.001461 
0.000000 
0.000000 
0.001354 
0.001230 
0.001292 
0.000000 
0.000000 
0.000000 
0.001480 
0.001401 
0.000000 
0.001525 
0.001619 
0.000000 
0.001634 
0.000000 
0.001428 
0.001308 
0.001190 
0.000000 
0.001045 
0.001105 
0.001186 
0.001204 
0.001169 
0.001135 
0.001083 
0.000990 
0.000908 
0.000899 
0.000961 
0.000000 
0.001079 
0.000971 
0.000721 
0.000468 
0.000534 
0.000000 
0.000920 
0.001208 
0.000000 
0.000000 
0.001047 
0.000588 
0.000000 
0.000000 
0.000586 
0.001222 
0.000000 
0.000000 
0.001752 
0.001522 
0.001336 
0.001263 
0.001286 
0.001351 
0.001395 
0.000000 
0.001264 
0.001135 
0.001011 
0.000000 
0.000841 
0.000000 
0.000830 
0.000000 
0.000645 
0.000364 
0.000000 
0.000282 
0.000000 
0.000843 
0.001126 
0.000000 
0.001438 
0.001417 
0.001372 
0.001369 
0.001372 
0.000000 
0.001248 
0.001148 
0.001048 
0.000976 
0.000942 
0.000937 
0.000916 
0.000825 
0.000000 
0.000565 
0.001518 
0.000000 
0.001446 
0.000000 
0.001210 
0.001081 
0.001065 
0.001196 
0.001415 
0.001615 
0.001687 
0.000000 
0.001309 
0.001134 
0.001164 
0.001336 
0.000000 
0.000000 
0.001409 
0.001330 
0.001347 
0.001446 
0.001563 
0.000000 
0.001601 
0.001521 
0.000000 
0.000000 
0.001130 
0.000962 
0.000873 
0.000955 
0.001091 
0.001175 
0.001191 
0.000000 
0.000000 
0.001046 
0.000978 
0.000000 
0.000950 
0.000985 
0.001014 
0.000000 
0.000822 
0.000663 
0.000601 
0.000587 
0.000602 
0.000917 
0.001164 
0.000000 
0.001043 
0.000710 
0.000298 
0.000000 
0.000546 
0.000000 
0.000000 
0.001616 
0.000000 
0.001317 
0.001175 
0.001150 
0.001238 
0.000000 
0.000000 
0.001394 
0.001262 
0.000000 
0.001016 
0.000930 
0.000859 
0.000828 
0.000841 
0.000000 
0.000705 
0.000441 
0.000000 
0.000339 
0.000566 
0.000790 
0.001039 
0.000000 
0.001359 
0.001387 
0.001425 
0.000000 
0.000000 
0.001430 
0.001290 
0.001189 
0.001143 
0.000000 
0.000000 
0.001022 
0.000957 
0.000854 
0.000739 
0.000657 
0.001297 
0.001301 
0.001305 
0.000000 
0.001194 
0.001101 
0.001130 
0.001333 
0.000000 
0.000000 
0.000000 
0.001602 
0.001284 
0.001071 
0.001060 
0.001186 
0.001325 
0.001385 
0.001363 
0.001327 
0.001352 
0.000000 
0.001563 
0.000000 
0.001557 
0.001443 
0.000000 
0.001166 
0.000000 
0.000758 
0.000593 
0.000787 
0.000000 
0.000000 
0.001191 
0.001195 
0.001167 
0.001123 
0.001089 
0.001047 
0.000996 
0.000980 
0.001008 
0.001018 
0.000952 
0.000840 
0.000712 
0.000507 
0.000000 
0.000643 
0.000957 
0.001087 
0.001039 
0.000000 
0.000440 
0.000000 
0.000360 
0.000794 
0.000000 
0.001242 
0.001210 
0.001108 
0.000000 
0.001053 
0.001172 
0.000000 
0.001435 
0.001394 
0.001253 
0.001107 
0.000999 
0.000000 
0.000830 
0.000786 
0.000808 
0.000844 
0.000799 
0.000656 
0.000486 
0.000526 
0.000621 
0.000774 
0.000994 
0.001217 
0.001363 
0.001447 
0.001541 
0.001638 
0.000000 
0.000000 
0.001356 
0.001281 
0.001283 
0.001276 
0.001211 
0.001120 
0.000000 
0.000923 
0.000829 
0.000774 
0.001219 
0.001232 
0.001263 
0.001281 
0.000000 
0.001208 
0.001287 
0.001532 
0.001828 
0.000000 
0.001914 
0.000000 
0.001277 
0.001047 
0.000000 
0.001079 
0.001198 
0.001301 
0.000000 
0.000000 
0.001438 
0.001532 
0.001632 
0.000000 
0.001571 
0.001397 
0.001205 
0.001011 
0.000803 
0.000531 
0.000000 
0.000597 
0.000895 
0.000000 
0.001112 
0.000000 
0.001155 
0.001180 
0.000000 
0.001178 
0.001097 
0.001044 
0.001067 
0.000000 
0.001118 
0.000000 
0.000952 
0.000776 
0.000581 
0.000699 
0.000000 
0.000973 
0.000000 
0.000894 
0.000556 
0.000000 
0.000000 
0.000375 
0.000606 
0.000802 
0.000000 
0.000909 
0.000913 
0.000961 
0.001084 
0.001254 
0.000000 
0.000000 
0.001264 
0.001120 
0.000999 
0.000892 
0.000789 
0.000733 
0.000771 
0.000856 
0.000000 
0.000836 
0.000000 
0.000698 
0.000722 
0.000828 
0.001020 
0.000000 
0.000000 
0.000000 
0.001662 
0.000000 
0.001715 
0.001556 
0.001404 
0.000000 
0.000000 
0.000000 
0.001332 
0.001208 
0.000000 
0.001007 
0.000948 
0.000922 
0.000000 
0.001282 
0.001305 
0.001315 
0.000000 
0.001295 
0.001411 
0.000000 
0.000000 
0.000000 
0.000000 
0.001611 
0.001267 
0.001035 
0.000957 
0.000000 
0.001086 
0.000000 
0.001345 
0.001451 
0.001555 
0.001665 
0.000000 
0.001802 
0.001707 
0.001487 
0.001221 
0.000984 
0.000799 
0.000648 
0.000525 
0.000694 
0.000844 
0.000933 
0.000971 
0.001004 
0.000000 
0.001150 
0.000000 
0.000000 
0.000000 
0.001087 
0.001102 
0.000000 
0.001239 
0.001259 
0.000000 
0.001046 
0.000852 
0.000743 
0.000722 
0.000812 
0.000946 
0.000000 
0.000749 
0.000377 
0.000000 
0.000000 
0.000000 
0.000360 
0.000615 
0.000755 
0.000829 
0.000000 
0.001011 
0.001163 
0.001296 
0.000000 
0.001292 
0.001169 
0.000000 
0.000878 
0.000000 
0.000652 
0.000719 
0.000000 
0.000937 
0.000940 
0.000876 
0.000820 
0.000000 
0.000921 
0.001088 
0.001283 
0.001449 
0.001585 
0.000000 
0.001794 
0.000000 
0.001572 
0.001430 
0.001427 
0.001508 
0.001529 
0.001431 
0.001281 
0.001150 
0.001058 
0.000000 
0.000000 
0.001330 
0.000000 
0.000000 
0.001306 
0.001261 
0.000000 
0.001395 
0.000000 
0.001903 
0.001980 
0.001846 
0.000000 
0.001262 
0.001036 
0.000920 
0.000902 
0.000970 
0.001110 
0.000000 
0.001465 
0.000000 
0.000000 
0.001894 
0.000000 
0.000000 
0.000000 
0.001374 
0.001113 
0.000955 
0.000876 
0.000834 
0.000000 
0.000882 
0.000884 
0.000870 
0.000870 
0.000921 
0.001029 
0.001144 
0.001172 
0.001098 
0.001019 
0.000000 
0.001128 
0.001260 
0.000000 
0.001362 
0.000000 
0.000000 
0.000706 
0.000488 
0.000536 
0.000815 
0.000000 
0.000933 
0.000699 
0.000376 
0.000000 
0.000000 
0.000000 
0.000442 
0.000697 
0.000830 
0.000917 
0.001018 
0.001137 
0.001244 
0.001320 
0.000000 
0.001244 
0.001083 
0.000875 
0.000655 
0.000471 
0.000640 
0.000824 
0.000947 
0.000000 
0.000939 
0.000894 
0.000916 
0.001015 
0.001161 
0.001310 
0.000000 
0.001543 
0.001675 
0.000000 
0.000000 
0.001590 
0.001463 
0.001464 
0.000000 
0.000000 
0.000000 
0.001329 
0.001180 
0.001063 
0.000992 
0.000961 
0.001303 
0.001305 
0.001282 
0.000000 
0.001128 
0.001114 
0.001240 
0.001496 
0.000000 
0.000000 
0.001741 
0.001525 
0.001277 
0.000000 
0.000934 
0.000876 
0.000907 
0.001023 
0.001201 
0.001408 
0.000000 
0.001776 
0.001925 
0.002052 
0.000000 
0.000000 
0.001538 
0.000000 
0.001182 
0.000000 
0.001137 
0.001096 
0.001035 
0.000965 
0.000889 
0.000830 
0.000833 
0.000914 
0.001012 
0.000000 
0.000947 
0.000849 
0.000840 
0.000980 
0.001191 
0.001368 
0.001421 
0.001304 
0.001015 
0.000592 
0.000000 
0.000000 
0.000663 
0.000995 
0.000000 
0.000991 
0.000746 
0.000391 
0.000000 
0.000000 
0.000424 
0.000000 
0.000938 
0.001057 
0.001156 
0.000000 
0.001272 
0.001331 
0.000000 
0.001360 
0.001205 
0.000951 
0.000615 
0.000000 
0.000610 
0.000870 
0.000986 
0.000000 
0.000983 
0.000951 
0.000981 
0.000000 
0.000000 
0.000000 
0.001380 
0.001453 
0.000000 
0.001690 
0.001707 
0.000000 
0.001504 
0.001483 
0.001528 
0.000000 
0.001444 
0.000000 
0.000000 
0.001074 
0.000968 
0.000899 
0.001248 
0.001241 
0.000000 
0.001096 
0.000989 
0.000949 
0.001038 
0.001264 
0.000000 
0.001657 
0.000000 
0.000000 
0.001294 
0.001135 
0.001015 
0.000955 
0.000963 
0.001037 
0.001162 
0.001321 
0.000000 
0.000000 
0.001834 
0.000000 
0.000000 
0.001875 
0.001624 
0.001440 
0.001399 
0.000000 
0.001472 
0.001406 
0.001279 
0.000000 
0.000000 
0.000898 
0.000844 
0.000867 
0.000000 
0.000870 
0.000759 
0.000618 
0.000543 
0.000750 
0.000000 
0.000000 
0.000000 
0.000000 
0.001035 
0.000612 
0.000000 
0.000355 
0.000756 
0.001053 
0.000000 
0.001208 
0.000000 
0.000710 
0.000305 
0.000000 
0.000424 
0.000000 
0.001127 
0.001320 
0.001436 
0.000000 
0.001404 
0.001415 
0.001502 
0.000000 
0.000000 
0.001215 
0.000979 
0.000818 
0.000998 
0.001118 
0.001136 
0.001105 
0.001061 
0.001038 
0.001063 
0.001143 
0.001248 
0.001328 
0.001364 
0.001397 
0.001495 
0.000000 
0.001684 
0.001635 
0.000000 
0.001485 
0.000000 
0.001422 
0.001343 
0.001277 
0.001229 
0.001156 
0.001041 
0.000941 
0.001328 
0.000000 
0.001241 
0.001127 
0.001006 
0.000903 
0.000888 
0.001020 
0.000000 
0.001528 
0.001540 
0.001423 
0.001269 
0.000000 
0.001111 
0.001104 
0.000000 
0.001196 
0.000000 
0.001310 
0.001413 
0.001550 
0.001724 
0.000000 
0.000000 
0.001852 
0.000000 
0.001575 
0.001619 
0.001766 
0.000000 
0.001788 
0.000000 
0.001355 
0.001183 
0.001049 
0.000959 
0.000915 
0.000848 
0.000696 
0.000000 
0.000338 
0.000000 
0.000415 
0.000928 
0.001219 
0.001317 
0.001264 
0.000000 
0.000800 
0.000584 
0.000716 
0.000000 
0.001151 
0.001274 
0.000000 
0.000000 
0.000000 
0.000412 
0.000000 
0.000347 
0.000923 
0.000000 
0.001751 
0.000000 
0.001874 
0.001710 
0.001648 
0.001748 
0.000000 
0.001839 
0.000000 
0.001523 
0.001465 
0.000000 
0.000000 
0.001439 
0.001320 
0.000000 
0.000000 
0.001290 
0.001360 
0.001458 
0.001538 
0.000000 
0.001544 
0.001600 
0.001704 
0.000000 
0.000000 
0.001580 
0.001499 
0.001442 
0.001383 
0.001350 
0.001384 
0.001435 
0.000000 
0.000000 
0.001132 
0.001891 
0.001855 
0.001755 
0.001619 
0.001443 
0.000000 
0.000876 
0.000747 
0.001342 
0.001721 
0.001708 
0.000000 
0.001156 
0.000000 
0.001122 
0.000000 
0.001435 
0.001604 
0.001658 
0.001640 
0.001688 
0.001801 
0.001953 
0.002080 
0.002085 
0.001978 
0.001843 
0.001804 
0.001943 
0.000000 
0.000000 
0.000000 
0.002022 
0.001694 
0.001509 
0.000000 
0.001301 
0.000000 
0.000972 
0.000479 
0.000304 
0.000166 
0.000000 
0.000000 
0.001082 
0.001356 
0.001356 
0.000000 
0.001176 
0.001043 
0.001026 
0.001206 
0.001395 
0.001449 
0.001447 
0.001480 
0.001431 
0.001059 
0.000366 
0.000000 
0.000000 
0.001131 
0.002005 
0.002592 
0.000000 
0.000000 
0.002414 
0.002247 
0.000000 
0.002613 
0.002731 
0.002669 
0.002516 
0.002397 
0.000000 
0.000000 
0.002053 
0.001859 
0.001765 
0.001831 
0.001954 
0.002056 
0.000000 
0.002312 
0.000000 
0.002231 
0.002226 
0.002252 
0.000000 
0.001976 
0.001748 
0.000000 
0.001568 
0.000000 
0.001729 
0.001967 
0.002138 
0.000000 
0.001840 
0.001582 
0.003719 
0.003638 
0.003443 
0.003218 
0.002876 
0.002093 
0.001224 
0.000000 
0.002088 
0.002920 
0.000000 
0.001874 
0.000885 
0.000735 
0.001021 
0.000000 
0.002061 
0.002681 
0.000000 
0.002942 
0.003059 
0.000000 
0.003375 
0.003358 
0.000000 
0.000000 
0.000000 
0.000000 
0.000000 
0.003203 
0.003724 
0.000000 
0.003075 
0.002601 
0.000000 
0.002432 
0.002374 
0.002297 
0.001819 
0.000000 
0.000000 
0.000000 
0.000000 
0.001886 
0.002479 
0.000000 
0.001905 
0.001755 
0.001688 
0.000000 
0.001889 
0.002359 
0.002615 
0.000000 
0.002180 
0.002195 
0.002285 
0.001750 
0.000000 
0.000000 
0.000000 
0.001962 
0.000000 
0.004557 
0.000000 
0.000000 
0.004135 
0.003780 
0.000000 
0.004524 
0.000000 
0.004998 
0.004759 
0.004372 
0.000000 
0.003885 
0.000000 
0.003440 
0.003297 
0.003497 
0.000000 
0.003971 
0.004247 
0.004522 
0.004508 
0.004237 
0.004154 
0.004065 
0.003721 
0.003104 
0.002446 
0.000000 
0.000000 
0.002437 
0.003060 
0.000000 
0.004222 
0.004002 
0.003356 
0.002750 
0.000000 
0.007970 
0.000000 
0.007092 
0.000000 
0.004587 
0.003073 
0.003214 
0.005322 
0.000000 
0.005663 
0.003467 
0.000000 
0.000000 
0.000887 
0.001769 
0.003430 
0.000000 
0.006222 
0.006483 
0.007024 
0.007508 
0.007752 
0.007425 
0.006313 
0.005196 
0.004305 
0.004056 
0.004571 
0.005630 
0.000000 
0.000000 
0.005737 
0.005079 
0.005146 
0.005326 
0.005376 
0.005558 
0.005370 
0.004655 
0.004604 
0.005002 
0.005482 
0.006216 
0.000000 
0.004715 
0.003664 
0.003463 
0.003455 
0.003406 
0.003992 
0.005169 
0.000000 
0.005089 
0.004283 
0.004279 
0.000000 
0.004404 
0.002552 
0.000000 
0.002045 
0.004250 
0.000000 
0.000000 
0.010005 
0.000000 
0.008094 
0.007369 
0.007808 
0.000000 
0.000000 
0.000000 
0.000000 
0.008717 
0.000000 
0.007926 
0.007890 
0.007703 
0.007328 
0.007701 
0.000000 
0.008525 
0.000000 
0.009863 
0.000000 
0.008996 
0.000000 
0.000000 
0.007875 
0.006359 
0.004561 
0.003618 
0.003789 
0.004892 
0.006713 
0.008698 
0.000000 
0.008793 
0.000000 
0.005531 
0.010171 
0.000000 
0.009361 
0.009030 
0.000000 
0.005933 
0.004385 
0.005314 
0.007932 
0.000000 
0.007954 
0.005604 
0.002620 
0.000000 
0.000000 
0.000000 
0.002482 
0.005562 
0.000000 
0.009166 
0.000000 
0.011817 
0.000000 
0.000000 
0.009444 
0.007353 
0.005520 
0.004779 
0.005152 
0.005999 
0.007101 
0.007316 
0.006755 
0.006877 
0.007471 
0.000000 
0.008035 
0.000000 
0.000000 
0.008758 
0.009059 
0.000000 
0.009881 
0.000000 
0.008055 
0.006019 
0.005068 
0.005437 
0.005586 
0.005092 
0.005409 
0.000000 
0.007235 
0.006797 
0.005839 
0.005494 
0.006105 
0.000000 
0.005052 
0.003938 
0.004061 
0.004978 
0.006931 
0.009034 
0.000000 
0.000000 
0.008926 
0.000000 
0.008781 
0.009316 
0.009761 
0.010119 
0.000000 
0.009528 
0.009778 
0.010237 
0.000000 
0.000000 
0.010615 
0.000000 
0.010667 
0.010661 
0.011272 
0.000000 
0.000000 
0.010966 
0.010746 
0.010766 
0.000000 
0.000000 
0.006054 
0.004566 
0.005070 
0.007119 
0.009865 
0.000000 
0.013050 
0.000000 
0.008905 
0.007035 
0.011226 
0.011078 
0.010635 
0.010609 
0.009612 
0.006974 
0.005575 
0.007079 
0.000000 
0.011074 
0.009655 
0.000000 
0.004799 
0.002762 
0.002012 
0.001180 
0.000000 
0.004653 
0.007892 
0.010190 
0.000000 
0.000000 
0.014684 
0.000000 
0.011966 
0.000000 
0.006840 
0.005560 
0.000000 
0.006328 
0.007355 
0.007760 
0.007588 
0.000000 
0.000000 
0.009114 
0.009370 
0.009690 
0.010283 
0.000000 
0.000000 
0.012344 
0.000000 
0.010617 
0.000000 
0.006426 
0.006121 
0.000000 
0.000000 
0.006444 
0.006079 
0.007062 
0.007927 
0.000000 
0.007773 
0.006890 
0.006935 
0.007041 
0.006442 
0.000000 
0.005769 
0.005608 
0.006469 
0.007873 
0.008835 
0.008472 
0.007482 
0.007460 
0.000000 
0.008413 
0.008346 
0.008382 
0.008375 
0.008819 
0.000000 
0.011599 
0.012839 
0.000000 
0.012101 
0.011211 
0.000000 
0.000000 
0.011219 
0.000000 
0.012183 
0.011722 
0.000000 
0.012098 
0.011947 
0.010379 
0.007448 
0.005677 
0.006325 
0.000000 
0.000000 
0.000000 
0.000000 
0.012612 
0.010096 
0.008665 
0.013310 
0.000000 
0.012919 
0.000000 
0.000000 
0.008646 
0.007074 
0.008499 
0.000000 
0.000000 
0.010081 
0.000000 
0.005468 
0.003666 
0.000000 
0.002060 
0.001738 
0.004679 
0.000000 
0.009942 
0.012098 
0.000000 
0.015008 
0.000000 
0.013011 
0.000000 
0.007556 
0.006063 
0.006040 
0.006781 
0.000000 
0.000000 
0.008299 
0.008341 
0.008810 
0.009536 
0.000000 
0.010406 
0.010687 
0.011088 
0.011504 
0.000000 
0.000000 
0.010053 
0.007721 
0.006151 
0.006291 
0.007510 
0.000000 
0.006589 
0.005922 
0.000000 
0.007974 
0.009418 
0.000000 
0.008655 
0.008026 
0.000000 
0.006607 
0.006603 
0.000000 
0.006829 
0.007611 
0.008795 
0.009248 
0.008187 
0.006710 
0.006267 
0.006863 
0.000000 
0.007406 
0.000000 
0.007131 
0.008397 
0.010916 
0.000000 
0.013593 
0.000000 
0.000000 
0.010457 
0.010004 
0.009754 
0.010334 
0.011772 
0.012755 
0.013597 
0.014520 
0.014788 
0.000000 
0.000000 
0.009800 
0.007479 
0.007295 
0.008309 
0.009708 
0.011543 
0.000000 
0.000000 
0.011292 
0.000000 
0.000000 
0.000000 
0.014226 
0.000000 
0.000000 
0.010267 
0.008839 
0.009686 
0.010930 
0.000000 
0.009031 
0.007103 
0.004703 
0.002561 
0.001920 
0.001153 
0.000000 
0.004478 
0.007403 
0.000000 
0.010555 
0.012621 
0.000000 
0.013707 
0.000000 
0.010383 
0.008037 
0.007124 
0.007165 
0.007683 
0.008832 
0.009764 
0.009540 
0.009271 
0.009421 
0.010074 
0.000000 
0.010871 
0.000000 
0.000000 
0.010069 
0.010600 
0.010773 
0.009524 
0.007866 
0.006944 
0.007172 
0.007816 
0.007709 
0.006320 
0.005276 
0.005638 
0.006972 
0.000000 
0.000000 
0.009526 
0.000000 
0.006944 
0.005704 
0.005960 
0.007002 
0.007858 
0.000000 
0.000000 
0.000000 
0.010373 
0.008024 
0.006407 
0.006173 
0.006579 
0.006593 
0.006229 
0.006498 
0.008651 
0.000000 
0.013428 
0.000000 
0.012212 
0.010565 
0.009455 
0.000000 
0.009202 
0.010303 
0.000000 
0.000000 
0.000000 
0.000000 
0.000000 
0.017311 
0.000000 
0.012796 
0.010012 
0.000000 
0.007877 
0.007679 
0.008824 
0.010774 
0.011815 
0.011852 
0.011939 
0.013510 
0.013376 
0.013557 
0.000000 
0.013389 
0.011602 
0.010905 
0.000000 
0.010889 
0.009805 
0.008531 
0.007179 
0.004641 
0.000000 
0.000000 
0.000000 
0.002860 
0.005871 
0.007720 
0.008022 
0.008514 
0.000000 
0.000000 
0.011434 
0.000000 
0.009911 
0.008991 
0.000000 
0.010131 
0.010303 
0.010847 
0.000000 
0.012145 
0.000000 
0.010953 
0.000000 
0.010014 
0.000000 
0.009620 
0.009079 
0.008737 
0.009401 
0.000000 
0.000000 
0.009379 
0.009274 
0.000000 
0.009969 
0.009463 
0.007611 
0.005642 
0.004944 
0.005525 
0.007311 
0.008974 
0.009263 
0.008192 
0.006092 
0.004747 
0.005311 
0.000000 
0.008157 
0.009664 
0.011614 
0.000000 
0.000000 
0.000000 
0.008155 
0.007317 
0.007125 
0.000000 
0.006046 
0.006706 
0.009415 
0.000000 
0.013593 
0.000000 
0.011242 
0.010059 
0.009477 
0.009255 
0.009253 
0.000000 
0.011792 
0.013825 
0.000000 
0.000000 
0.000000 
0.019047 
0.000000 
0.000000 
0.012340 
0.009567 
0.000000 
0.006736 
0.007869 
0.010277 
0.000000 
0.000000 
0.000000 
0.000000 
0.000000 
0.011843 
0.000000 
0.013016 
0.000000 
0.000000 
0.000000 
0.000000 
0.009765 
0.009824 
0.000000 
0.007631 
0.004479 
0.003239 
0.003644 
0.005453 
0.000000 
0.000000 
0.007160 
0.006138 
0.006888 
0.007945 
0.008456 
0.008826 
0.000000 
0.009747 
0.011752 
0.000000 
0.000000 
0.012887 
0.000000 
0.000000 
0.013271 
0.000000 
0.009352 
0.007810 
0.007776 
0.008339 
0.008446 
0.008221 
0.000000 
0.008772 
0.009222 
0.000000 
0.000000 
0.011768 
0.000000 
0.000000 
0.000000 
0.007079 
0.005409 
0.005042 
0.006275 
0.008262 
0.000000 
0.000000 
0.005583 
0.004374 
0.005254 
0.007183 
0.008716 
0.009581 
0.010612 
0.000000 
0.012286 
0.011432 
0.010892 
0.010503 
0.009526 
0.007887 
0.006897 
0.007873 
0.010446 
0.000000 
0.000000 
0.011934 
0.010783 
0.000000 
0.000000 
0.010374 
0.009778 
0.009591 
0.000000 
0.011375 
0.014319 
0.000000 
0.000000 
0.000000 
0.018123 
0.000000 
0.000000 
0.009537 
0.006893 
0.006382 
0.008314 
0.000000 
0.011765 
0.011152 
0.010494 
0.007374 
0.007598 
0.008738 
0.000000 
0.011826 
0.011384 
0.010195 
0.009209 
0.008744 
0.009419 
0.000000 
0.012397 
0.000000 
0.007504 
0.005414 
0.000000 
0.006504 
0.007804 
0.000000 
0.005787 
0.003712 
0.004516 
0.005993 
0.006989 
0.007516 
0.008276 
0.009742 
0.000000 
0.000000 
0.000000 
0.012693 
0.013524 
0.000000 
0.012969 
0.000000 
0.007244 
0.004896 
0.005657 
0.000000 
0.000000 
0.008110 
0.007424 
0.007088 
0.007616 
0.008968 
0.010666 
0.011997 
0.012880 
0.000000 
0.010546 
0.007760 
0.000000 
0.005118 
0.005809 
0.000000 
0.008316 
0.007005 
0.004996 
0.004539 
0.006124 
0.008474 
0.000000 
0.000000 
0.009354 
0.010170 
0.000000 
0.012554 
0.000000 
0.000000 
0.000000 
0.010534 
0.009146 
0.009991 
0.000000 
0.011531 
0.010770 
0.000000 
0.010093 
0.010495 
0.010920 
0.000000 
0.000000 
0.008855 
0.008498 
0.008906 
0.010942 
0.000000 
0.016476 
0.017246 
0.000000 
0.015219 
0.000000 
0.008379 
0.005817 
0.006225 
0.009178 
0.000000 
0.012450 
0.011144 
0.009895 
0.003286 
0.003604 
0.004946 
0.008393 
0.000000 
0.000000 
0.008478 
0.007044 
0.007080 
0.008680 
0.000000 
0.000000 
0.000000 
0.008972 
0.006148 
0.005681 
0.006279 
0.006866 
0.006491 
0.004018 
0.000000 
0.003563 
0.006238 
0.000000 
0.008064 
0.008501 
0.009353 
0.010734 
0.000000 
0.011016 
0.010472 
0.000000 
0.012587 
0.000000 
0.008286 
0.004581 
0.000000 
0.002804 
0.005765 
0.007639 
0.000000 
0.007121 
0.006700 
0.007091 
0.008194 
0.000000 
0.000000 
0.000000 
0.011167 
0.000000 
0.007199 
0.005726 
0.004908 
0.005067 
0.006240 
0.000000 
0.005859 
0.004497 
0.004778 
0.000000 
0.009404 
0.000000 
0.009450 
0.007968 
0.008459 
0.010462 
0.012843 
0.000000 
0.000000 
0.000000 
0.013057 
0.011676 
0.000000 
0.000000 
0.010038 
0.008492 
0.008552 
0.009378 
0.000000 
0.009865 
0.000000 
0.009209 
0.008364 
0.008241 
0.008066 
0.008633 
0.010841 
0.000000 
0.000000 
0.000000 
0.012408 
0.000000 
0.006122 
0.004011 
0.005423 
0.000000 
0.000000 
0.000000 
0.000000 
0.011314 
0.000000 
0.000000 
0.000000 
0.006473 
0.009963 
0.010182 
0.008085 
0.006738 
0.006985 
0.008260 
0.010798 
0.013058 
0.000000 
0.009402 
0.006373 
0.005568 
0.000000 
0.006023 
0.000000 
0.003430 
0.001911 
0.004189 
0.000000 
0.009277 
0.009492 
0.000000 
0.000000 
0.008841 
0.008795 
0.008181 
0.008069 
0.009517 
0.000000 
0.009221 
0.006635 
0.003743 
0.000000 
0.000000 
0.004652 
0.007356 
0.008278 
0.008035 
0.007826 
0.000000 
0.007832 
0.008392 
0.008763 
0.009022 
0.008913 
0.007934 
0.006775 
0.006113 
0.005468 
0.004848 
0.005030 
0.005386 
0.004875 
0.003896 
0.004168 
0.006211 
0.000000 
0.009828 
0.008688 
0.007113 
0.007584 
0.000000 
0.012118 
0.000000 
0.016791 
0.000000 
0.014017 
0.000000 
0.011950 
0.000000 
0.008431 
0.006923 
0.007486 
0.000000 
0.008795 
0.007980 
0.007852 
0.007983 
0.008313 
0.000000 
0.000000 
0.007409 
0.008134 
0.009967 
0.010984 
0.000000 
0.008064 
0.005215 
0.002776 
0.000000 
0.002981 
0.006963 
0.010534 
0.012420 
0.012608 
0.000000 
0.003541 
0.003528 
0.004243 
0.007540 
0.000000 
0.000000 
0.009049 
0.008076 
0.000000 
0.009131 
0.010876 
0.012923 
0.000000 
0.010150 
0.007226 
0.005868 
0.005463 
0.005022 
0.003939 
0.001858 
0.000000 
0.003869 
0.007615 
0.000000 
0.010601 
0.009919 
0.008758 
0.007851 
0.007724 
0.007398 
0.007187 
0.008187 
0.000000 
0.008153 
0.006713 
0.005164 
0.003349 
0.003407 
0.006059 
0.000000 
0.010245 
0.010189 
0.000000 
0.009018 
0.008472 
0.008136 
0.007534 
0.007518 
0.000000 
0.007780 
0.007828 
0.008035 
0.000000 
0.005825 
0.004891 
0.004660 
0.000000 
0.003086 
0.002644 
0.003897 
0.006421 
0.000000 
0.000000 
0.006326 
0.006637 
0.000000 
0.010264 
0.012649 
0.000000 
0.000000 
0.013085 
0.000000 
0.010414 
0.008822 
0.007222 
0.006185 
0.006812 
0.000000 
0.007670 
0.006379 
0.006059 
0.000000 
0.007583 
0.000000 
0.007720 
0.006222 
0.006171 
0.000000 
0.007506 
0.006370 
0.003497 
0.000000 
0.000000 
0.000000 
0.000000 
0.004942 
0.008819 
0.000000 
0.000000 
0.010788 
0.000000 
0.006787 
0.007080 
0.008690 
0.000000 
0.000000 
0.009281 
0.008933 
0.000000 
0.010059 
0.000000 
0.000000 
0.000000 
0.011809 
0.009560 
0.007664 
0.006239 
0.005078 
0.003281 
0.000000 
0.000000 
0.003950 
0.007540 
0.000000 
0.000000 
0.010897 
0.009421 
0.008258 
0.000000 
0.000000 
0.007812 
0.008167 
0.008685 
0.008493 
0.008201 
0.000000 
0.005643 
0.005455 
0.007702 
0.010566 
0.000000 
0.000000 
0.011425 
0.010892 
0.010578 
0.000000 
0.008134 
0.007539 
0.008042 
0.008316 
0.000000 
0.000000 
0.009399 
0.007201 
0.005427 
0.004313 
0.003306 
0.001615 
0.000000 
0.000000 
0.003030 
0.005232 
0.005616 
0.004934 
0.005192 
0.006517 
0.007815 
0.000000 
0.010978 
0.011446 
0.010952 
0.000000 
0.008606 
0.007526 
0.000000 
0.006359 
0.006505 
0.006954 
0.000000 
0.005034 
0.004500 
0.004968 
0.005992 
0.007102 
0.006699 
0.005332 
0.005087 
0.005927 
0.005978 
0.004420 
0.000000 
0.000000 
0.000000 
0.000000 
0.000000 
0.004255 
0.000000 
0.009443 
0.009412 
0.008486 
0.008971 
0.000000 
0.009494 
0.009545 
0.009518 
0.008953 
0.008089 
0.000000 
0.009149 
0.009864 
0.010672 
0.012064 
0.000000 
0.013490 
0.000000 
0.000000 
0.007986 
0.000000 
0.004570 
0.003173 
0.003520 
0.005316 
0.007700 
0.009946 
0.011345 
0.000000 
0.000000 
0.008752 
0.008764 
0.009170 
0.008839 
0.000000 
0.009651 
0.009654 
0.000000 
0.000000 
0.006143 
0.005796 
0.000000 
0.000000 
0.000000 
0.011399 
0.000000 
0.012628 
0.000000 
0.000000 
0.009259 
0.008279 
0.000000 
0.008325 
0.009153 
0.010512 
0.000000 
0.008075 
0.000000 
0.004347 
0.002815 
0.000000 
0.000000 
0.000000 
0.000000 
0.003345 
0.004486 
0.004375 
0.004704 
0.005554 
0.006064 
0.007058 
0.008300 
0.000000 
0.009189 
0.008697 
0.007472 
0.007274 
0.007901 
0.007676 
0.007322 
0.006530 
0.005325 
0.004197 
0.003866 
0.004192 
0.005300 
0.006720 
0.000000 
0.005493 
0.005467 
0.006824 
0.007510 
0.006513 
0.004555 
0.003753 
0.002599 
0.000000 
0.000000 
0.004373 
0.007288 
0.008394 
0.000000 
0.007085 
0.009507 
0.010384 
0.000000 
0.000000 
0.009003 
0.007782 
0.006979 
0.007312 
0.008557 
0.000000 
0.010590 
0.011418 
0.013033 
0.000000 
0.000000 
0.011627 
0.009157 
0.007634 
0.006002 
0.005202 
0.000000 
0.006943 
0.000000 
0.009756 
0.010886 
0.000000 
0.010301 
0.009030 
0.009416 
0.000000 
0.009954 
0.010143 
0.000000 
0.000000 
0.008594 
0.006538 
0.004066 
0.003602 
0.004652 
0.005925 
0.006748 
0.008167 
0.010449 
0.000000 
0.000000 
0.011683 
0.009744 
0.008730 
0.000000 
0.007488 
0.007894 
0.000000 
0.000000 
0.007458 
0.005643 
0.004561 
0.003720 
0.002001 
0.000000 
0.000000 
0.001894 
0.003748 
0.000000 
0.005090 
0.005620 
0.000000 
0.005752 
0.005969 
0.007005 
0.008006 
0.008498 
0.000000 
0.007707 
0.008530 
0.000000 
0.010515 
0.000000 
0.007856 
0.005777 
0.004888 
0.005006 
0.005144 
0.006009 
0.000000 
0.007242 
0.006127 
0.006477 
0.000000 
0.000000 
0.000000 
0.008143 
0.000000 
0.006467 
0.004922 
0.004673 
0.006297 
0.000000 
0.008371 
0.007774 
0.007054 
0.009275 
0.010475 
0.000000 
0.010639 
0.008513 
0.000000 
0.006797 
0.006890 
0.008146 
0.000000 
0.011539 
0.012065 
0.012976 
0.013942 
0.000000 
0.011957 
0.010350 
0.000000 
0.007676 
0.006586 
0.006679 
0.007339 
0.008094 
0.000000 
0.009310 
0.000000 
0.009428 
0.009288 
0.010244 
0.000000 
0.010466 
0.010174 
0.009902 
0.008620 
0.006693 
0.004115 
0.000000 
0.000000 
0.000000 
0.000000 
0.000000 
0.003755 
0.007597 
0.000000 
0.011254 
0.010346 
0.000000 
0.008418 
0.007274 
0.005841 
0.005612 
0.006614 
0.006878 
0.005686 
0.004903 
0.005042 
0.000000 
0.004296 
0.003165 
0.003027 
0.003869 
0.004715 
0.005445 
0.005855 
0.006632 
0.006841 
0.005918 
0.005614 
0.000000 
0.007085 
0.000000 
0.008076 
0.008391 
0.010047 
0.000000 
0.012748 
0.000000 
0.009624 
0.007262 
0.006702 
0.000000 
0.007032 
0.007283 
0.008281 
0.007979 
0.006659 
0.006554 
0.008424 
0.000000 
0.009919 
0.009481 
0.009708 
0.000000 
0.008486 
0.008092 
0.008355 