# vtk DataFile Version 3.0
results.vtk
ASCII
DATASET RECTILINEAR_GRID
DIMENSIONS 100 100 1
X_COORDINATES 100 double
0.000000 0.010000 0.020000 0.030000 0.040000 0.050000 0.060000 0.070000 0.080000 0.090000 0.100000 0.110000 0.120000 0.130000 0.140000 0.150000 0.160000 0.170000 0.180000 0.190000 0.200000 0.210000 0.220000 0.230000 0.240000 0.250000 0.260000 0.270000 0.280000 0.290000 0.300000 0.310000 0.320000 0.330000 0.340000 0.350000 0.360000 0.370000 0.380000 0.390000 0.400000 0.410000 0.420000 0.430000 0.440000 0.450000 0.460000 0.470000 0.480000 0.490000 0.500000 0.510000 0.520000 0.530000 0.540000 0.550000 0.560000 0.570000 0.580000 0.590000 0.600000 0.610000 0.620000 0.630000 0.640000 0.650000 0.660000 0.670000 0.680000 0.690000 0.700000 0.710000 0.720000 0.730000 0.740000 0.750000 0.760000 0.770000 0.780000 0.790000 0.800000 0.810000 0.820000 0.830000 0.840000 0.850000 0.860000 0.870000 0.880000 0.890000 0.900000 0.910000 0.920000 0.930000 0.940000 0.950000 0.960000 0.970000 0.980000 0.990000 
Y_COORDINATES 100 double
0.000000 0.010000 0.020000 0.030000 0.040000 0.050000 0.060000 0.070000 0.080000 0.090000 0.100000 0.110000 0.120000 0.130000 0.140000 0.150000 0.160000 0.170000 0.180000 0.190000 0.200000 0.210000 0.220000 0.230000 0.240000 0.250000 0.260000 0.270000 0.280000 0.290000 0.300000 0.310000 0.320000 0.330000 0.340000 0.350000 0.360000 0.370000 0.380000 0.390000 0.400000 0.410000 0.420000 0.430000 0.440000 0.450000 0.460000 0.470000 0.480000 0.490000 0.500000 0.510000 0.520000 0.530000 0.540000 0.550000 0.560000 0.570000 0.580000 0.590000 0.600000 0.610000 0.620000 0.630000 0.640000 0.650000 0.660000 0.670000 0.680000 0.690000 0.700000 0.710000 0.720000 0.730000 0.740000 0.750000 0.760000 0.770000 0.780000 0.790000 0.800000 0.810000 0.820000 0.830000 0.840000 0.850000 0.860000 0.870000 0.880000 0.890000 0.900000 0.910000 0.920000 0.930000 0.940000 0.950000 0.960000 0.970000 0.980000 0.990000 
Z_COORDINATES 1 double
0
POINT_DATA 10000 
FIELD FieldData 1 
Concentração 1 10000 double 
0.092643 
0.000000 
0.085860 
0.066748 
0.000000 
0.060387 
0.067903 
0.073149 
0.000000 
0.036272 
0.044566 
0.071833 
0.000000 
0.049502 
0.000000 
0.000000 
0.000000 
0.065231 
0.000000 
0.000000 
0.073581 
0.000000 
0.000000 
0.063629 
0.071025 
0.000000 
0.036047 
0.029322 
0.044003 
0.033898 
0.033320 
0.060368 
0.071694 
0.059685 
0.030568 
0.031254 
0.057003 
0.000000 
0.028946 
0.027650 
0.000000 
0.050599 
0.063725 
0.057005 
0.022768 
0.000000 
0.010102 
0.034134 
0.000000 
0.000000 
0.000000 
0.075312 
0.000000 
0.020623 
0.000000 
0.000000 
0.000000 
0.035524 
0.090304 
0.000000 
0.085135 
0.000000 
0.060805 
0.063739 
0.057394 
0.032155 
0.032211 
0.052483 
0.041876 
0.044807 
0.024853 
0.015997 
0.009531 
0.012952 
0.015366 
0.030432 
0.000000 
0.018133 
0.000000 
0.000000 
0.014116 
0.025151 
0.049148 
0.057070 
0.082387 
0.000000 
0.059986 
0.000000 
0.034346 
0.043811 
0.000000 
0.000000 
0.041749 
0.014719 
0.013917 
0.036954 
0.000000 
0.040287 
0.018618 
0.000000 
0.093286 
0.000000 
0.000000 
0.065618 
0.000000 
0.057201 
0.000000 
0.000000 
0.049384 
0.035998 
0.058296 
0.000000 
0.055937 
0.033124 
0.046417 
0.070283 
0.076737 
0.061806 
0.049370 
0.049127 
0.063367 
0.000000 
0.069017 
0.067429 
0.000000 
0.065180 
0.038954 
0.037359 
0.000000 
0.046856 
0.041935 
0.000000 
0.000000 
0.000000 
0.036556 
0.037050 
0.000000 
0.042374 
0.020804 
0.021206 
0.036798 
0.054533 
0.000000 
0.000000 
0.027586 
0.000000 
0.011846 
0.031774 
0.046957 
0.071066 
0.000000 
0.073894 
0.040998 
0.014334 
0.000000 
0.000000 
0.011551 
0.047782 
0.000000 
0.000000 
0.082726 
0.000000 
0.058628 
0.000000 
0.000000 
0.042632 
0.045314 
0.000000 
0.053623 
0.000000 
0.034340 
0.028358 
0.020332 
0.024819 
0.023865 
0.035005 
0.029836 
0.011308 
0.000000 
0.009109 
0.024569 
0.033851 
0.000000 
0.072538 
0.000000 
0.000000 
0.048175 
0.038242 
0.032691 
0.042682 
0.058019 
0.000000 
0.035420 
0.017355 
0.016940 
0.033236 
0.000000 
0.038927 
0.026897 
0.012260 
0.000000 
0.078257 
0.060032 
0.051434 
0.042556 
0.027973 
0.033426 
0.035683 
0.032253 
0.044282 
0.000000 
0.000000 
0.048931 
0.023441 
0.037993 
0.000000 
0.000000 
0.000000 
0.050067 
0.039653 
0.000000 
0.058480 
0.057376 
0.000000 
0.073463 
0.000000 
0.059849 
0.051922 
0.054844 
0.000000 
0.034627 
0.039267 
0.046552 
0.042304 
0.030341 
0.041576 
0.049456 
0.028889 
0.019440 
0.027922 
0.035557 
0.000000 
0.056164 
0.051807 
0.022923 
0.009602 
0.019612 
0.000000 
0.034495 
0.049469 
0.000000 
0.000000 
0.043096 
0.015938 
0.000000 
0.000000 
0.019919 
0.064485 
0.000000 
0.000000 
0.072093 
0.048512 
0.033546 
0.038165 
0.044607 
0.051684 
0.061464 
0.000000 
0.050069 
0.050179 
0.040887 
0.000000 
0.040260 
0.000000 
0.046161 
0.000000 
0.033062 
0.009481 
0.000000 
0.017565 
0.000000 
0.035018 
0.053834 
0.000000 
0.062149 
0.046085 
0.032404 
0.044710 
0.056665 
0.000000 
0.041607 
0.036473 
0.026696 
0.032193 
0.031812 
0.027008 
0.037025 
0.033044 
0.000000 
0.023414 
0.064196 
0.000000 
0.057636 
0.000000 
0.040868 
0.016994 
0.013866 
0.022907 
0.041580 
0.061050 
0.082519 
0.000000 
0.039462 
0.016994 
0.026109 
0.057214 
0.000000 
0.000000 
0.046837 
0.030118 
0.037232 
0.045379 
0.055576 
0.000000 
0.061597 
0.063928 
0.000000 
0.000000 
0.057236 
0.036607 
0.019186 
0.023426 
0.040688 
0.046222 
0.042867 
0.000000 
0.000000 
0.035141 
0.031779 
0.000000 
0.031623 
0.032566 
0.038316 
0.000000 
0.027069 
0.013843 
0.013344 
0.020120 
0.014653 
0.025290 
0.057216 
0.000000 
0.045529 
0.029337 
0.010411 
0.000000 
0.027464 
0.000000 
0.000000 
0.087684 
0.000000 
0.041368 
0.032226 
0.027632 
0.043483 
0.000000 
0.000000 
0.061777 
0.042524 
0.000000 
0.040288 
0.044538 
0.029999 
0.030643 
0.037612 
0.000000 
0.033528 
0.011194 
0.000000 
0.010575 
0.021018 
0.019736 
0.038066 
0.000000 
0.046468 
0.031517 
0.038201 
0.000000 
0.000000 
0.070386 
0.034357 
0.026569 
0.036752 
0.000000 
0.000000 
0.038183 
0.036965 
0.024765 
0.023549 
0.013681 
0.032780 
0.036292 
0.043384 
0.000000 
0.051772 
0.022452 
0.016065 
0.037395 
0.000000 
0.000000 
0.000000 
0.074185 
0.031760 
0.018099 
0.027877 
0.034580 
0.046855 
0.052623 
0.046584 
0.040062 
0.039545 
0.000000 
0.063925 
0.000000 
0.052874 
0.047753 
0.000000 
0.064205 
0.000000 
0.027898 
0.013959 
0.028847 
0.000000 
0.000000 
0.053013 
0.056123 
0.046426 
0.031466 
0.038917 
0.038027 
0.023145 
0.017459 
0.026576 
0.045595 
0.031036 
0.027359 
0.017924 
0.010556 
0.000000 
0.015860 
0.038572 
0.048952 
0.052861 
0.000000 
0.022560 
0.000000 
0.015723 
0.048417 
0.000000 
0.056459 
0.052462 
0.040007 
0.000000 
0.033361 
0.041032 
0.000000 
0.077194 
0.056738 
0.032478 
0.032236 
0.036109 
0.000000 
0.029252 
0.017040 
0.020222 
0.037751 
0.034474 
0.022194 
0.021073 
0.013921 
0.012946 
0.010983 
0.025496 
0.053693 
0.051114 
0.043257 
0.045466 
0.077223 
0.000000 
0.000000 
0.042323 
0.040808 
0.050296 
0.059168 
0.047401 
0.042369 
0.000000 
0.033383 
0.020397 
0.014566 
0.031443 
0.027919 
0.032044 
0.055221 
0.000000 
0.039137 
0.028633 
0.053968 
0.090134 
0.000000 
0.101088 
0.000000 
0.035923 
0.028908 
0.000000 
0.043864 
0.038206 
0.055067 
0.000000 
0.000000 
0.046224 
0.050038 
0.064151 
0.000000 
0.047690 
0.031559 
0.033726 
0.027272 
0.024599 
0.011830 
0.000000 
0.020756 
0.048032 
0.000000 
0.052725 
0.000000 
0.052189 
0.047330 
0.000000 
0.060063 
0.039409 
0.024866 
0.038741 
0.000000 
0.052672 
0.000000 
0.043102 
0.023509 
0.015348 
0.023571 
0.000000 
0.047294 
0.000000 
0.059937 
0.025179 
0.000000 
0.000000 
0.016288 
0.030570 
0.033830 
0.000000 
0.033436 
0.033618 
0.032406 
0.030409 
0.054290 
0.000000 
0.000000 
0.044482 
0.028494 
0.034467 
0.037602 
0.030692 
0.016749 
0.020135 
0.043433 
0.000000 
0.044712 
0.000000 
0.028912 
0.025331 
0.018196 
0.031581 
0.000000 
0.000000 
0.000000 
0.072346 
0.000000 
0.082192 
0.055070 
0.041887 
0.000000 
0.000000 
0.000000 
0.047190 
0.040867 
0.000000 
0.039854 
0.037794 
0.039745 
0.000000 
0.051763 
0.046480 
0.052743 
0.000000 
0.054932 
0.051053 
0.000000 
0.000000 
0.000000 
0.000000 
0.069215 
0.032007 
0.025302 
0.040242 
0.000000 
0.045063 
0.000000 
0.067648 
0.056707 
0.056024 
0.062964 
0.000000 
0.078985 
0.062622 
0.045125 
0.025210 
0.015339 
0.011699 
0.010912 
0.012391 
0.024144 
0.026425 
0.032309 
0.028160 
0.042048 
0.000000 
0.054320 
0.000000 
0.000000 
0.000000 
0.041315 
0.052032 
0.000000 
0.054140 
0.065765 
0.000000 
0.051356 
0.035487 
0.022117 
0.025140 
0.027227 
0.050474 
0.000000 
0.037021 
0.010217 
0.000000 
0.000000 
0.000000 
0.011281 
0.023538 
0.022575 
0.028520 
0.000000 
0.028509 
0.033871 
0.055186 
0.000000 
0.058225 
0.040848 
0.000000 
0.042062 
0.000000 
0.024809 
0.026473 
0.000000 
0.049919 
0.046251 
0.037525 
0.031308 
0.000000 
0.029739 
0.029523 
0.048985 
0.063810 
0.065664 
0.000000 
0.091703 
0.000000 
0.049697 
0.030091 
0.045535 
0.069130 
0.072526 
0.050978 
0.035618 
0.039622 
0.038863 
0.000000 
0.000000 
0.066307 
0.000000 
0.000000 
0.060838 
0.057714 
0.000000 
0.054892 
0.000000 
0.094520 
0.087646 
0.074431 
0.000000 
0.037634 
0.030690 
0.025102 
0.026967 
0.025900 
0.043790 
0.000000 
0.063249 
0.000000 
0.000000 
0.079481 
0.000000 
0.000000 
0.000000 
0.047420 
0.031267 
0.023697 
0.030917 
0.030966 
0.000000 
0.026422 
0.019988 
0.016200 
0.018686 
0.025890 
0.028853 
0.050461 
0.059955 
0.045629 
0.035963 
0.000000 
0.050329 
0.047971 
0.000000 
0.071686 
0.000000 
0.000000 
0.026908 
0.012184 
0.013087 
0.036397 
0.000000 
0.051385 
0.022095 
0.009651 
0.000000 
0.000000 
0.000000 
0.016058 
0.028338 
0.023374 
0.025787 
0.024039 
0.033788 
0.036306 
0.056403 
0.000000 
0.047788 
0.036740 
0.024162 
0.022222 
0.011861 
0.014584 
0.029581 
0.041887 
0.000000 
0.036839 
0.023067 
0.032330 
0.040086 
0.046420 
0.056888 
0.000000 
0.054625 
0.074814 
0.000000 
0.000000 
0.058781 
0.033831 
0.043262 
0.000000 
0.000000 
0.000000 
0.057036 
0.042451 
0.028578 
0.034612 
0.039100 
0.039062 
0.051935 
0.067077 
0.000000 
0.039070 
0.032155 
0.032117 
0.063177 
0.000000 
0.000000 
0.072369 
0.061682 
0.043915 
0.000000 
0.026268 
0.015645 
0.014660 
0.022011 
0.037961 
0.054140 
0.000000 
0.081968 
0.064973 
0.095857 
0.000000 
0.000000 
0.062411 
0.000000 
0.048542 
0.000000 
0.044307 
0.034697 
0.028400 
0.033335 
0.029890 
0.016496 
0.013010 
0.021401 
0.046121 
0.000000 
0.035706 
0.021071 
0.026219 
0.029499 
0.045368 
0.063329 
0.064635 
0.064315 
0.044821 
0.016772 
0.000000 
0.000000 
0.023746 
0.053367 
0.000000 
0.046387 
0.034797 
0.016786 
0.000000 
0.000000 
0.026792 
0.000000 
0.036371 
0.025182 
0.037985 
0.000000 
0.040013 
0.044589 
0.000000 
0.062760 
0.044705 
0.023147 
0.010859 
0.000000 
0.012221 
0.021416 
0.034585 
0.000000 
0.036870 
0.023485 
0.033262 
0.000000 
0.000000 
0.000000 
0.055500 
0.045205 
0.000000 
0.077609 
0.075094 
0.000000 
0.050330 
0.043615 
0.071927 
0.000000 
0.073158 
0.000000 
0.000000 
0.035173 
0.021798 
0.015160 
0.035656 
0.049954 
0.000000 
0.043008 
0.021333 
0.016368 
0.018740 
0.046622 
0.000000 
0.080504 
0.000000 
0.000000 
0.048830 
0.048889 
0.027364 
0.021912 
0.025922 
0.024364 
0.035830 
0.047416 
0.000000 
0.000000 
0.069773 
0.000000 
0.000000 
0.081974 
0.053367 
0.042367 
0.046093 
0.000000 
0.061245 
0.044920 
0.050580 
0.000000 
0.000000 
0.030477 
0.017077 
0.028167 
0.000000 
0.046891 
0.033710 
0.015917 
0.013031 
0.027975 
0.000000 
0.000000 
0.000000 
0.000000 
0.051619 
0.018865 
0.000000 
0.010113 
0.029017 
0.046047 
0.000000 
0.074523 
0.000000 
0.047721 
0.015315 
0.000000 
0.027749 
0.000000 
0.050556 
0.037627 
0.057599 
0.000000 
0.038906 
0.032320 
0.062635 
0.000000 
0.000000 
0.045649 
0.020007 
0.018076 
0.036492 
0.039369 
0.030188 
0.038353 
0.039557 
0.033860 
0.026387 
0.036151 
0.045155 
0.046260 
0.044031 
0.032918 
0.048384 
0.000000 
0.074186 
0.075256 
0.000000 
0.053952 
0.000000 
0.055532 
0.036970 
0.038461 
0.042701 
0.043915 
0.034024 
0.017262 
0.043527 
0.000000 
0.042305 
0.023057 
0.017058 
0.022088 
0.018186 
0.033988 
0.000000 
0.052233 
0.053435 
0.058013 
0.051344 
0.000000 
0.046296 
0.049573 
0.000000 
0.043754 
0.000000 
0.036995 
0.042792 
0.045531 
0.051560 
0.000000 
0.000000 
0.071693 
0.000000 
0.042570 
0.044068 
0.076570 
0.000000 
0.078380 
0.000000 
0.054072 
0.046471 
0.035469 
0.024219 
0.031484 
0.034726 
0.034032 
0.000000 
0.018322 
0.000000 
0.012065 
0.034137 
0.047715 
0.055345 
0.067664 
0.000000 
0.029151 
0.012510 
0.021201 
0.000000 
0.041858 
0.056505 
0.000000 
0.000000 
0.000000 
0.024762 
0.000000 
0.015281 
0.044647 
0.000000 
0.060655 
0.000000 
0.077811 
0.036846 
0.030433 
0.061114 
0.000000 
0.073717 
0.000000 
0.034050 
0.043379 
0.000000 
0.000000 
0.048396 
0.039934 
0.000000 
0.000000 
0.035122 
0.027746 
0.038322 
0.045755 
0.000000 
0.036332 
0.032618 
0.057698 
0.000000 
0.000000 
0.060917 
0.053333 
0.050486 
0.041052 
0.023682 
0.025444 
0.043593 
0.000000 
0.000000 
0.032281 
0.030001 
0.031595 
0.026017 
0.018241 
0.029391 
0.000000 
0.021756 
0.017227 
0.032778 
0.039018 
0.051628 
0.000000 
0.051739 
0.000000 
0.057083 
0.000000 
0.053959 
0.042817 
0.045209 
0.026122 
0.024311 
0.031750 
0.031468 
0.051599 
0.068276 
0.063179 
0.063575 
0.055824 
0.062438 
0.000000 
0.000000 
0.000000 
0.063393 
0.039821 
0.048125 
0.000000 
0.040273 
0.000000 
0.027701 
0.016434 
0.018603 
0.008258 
0.000000 
0.000000 
0.025230 
0.036928 
0.040672 
0.000000 
0.048166 
0.032824 
0.016076 
0.018866 
0.036967 
0.036338 
0.031067 
0.040837 
0.050131 
0.035858 
0.011908 
0.000000 
0.000000 
0.028345 
0.061038 
0.074760 
0.000000 
0.000000 
0.051905 
0.043565 
0.000000 
0.076165 
0.066440 
0.051985 
0.038380 
0.054584 
0.000000 
0.000000 
0.059622 
0.032597 
0.035441 
0.042050 
0.044201 
0.039653 
0.000000 
0.055266 
0.000000 
0.038789 
0.031554 
0.048718 
0.000000 
0.058750 
0.052653 
0.000000 
0.068947 
0.000000 
0.034927 
0.037444 
0.050158 
0.000000 
0.054990 
0.024482 
0.054140 
0.044391 
0.050757 
0.036740 
0.056706 
0.035373 
0.012009 
0.000000 
0.028688 
0.068125 
0.000000 
0.043941 
0.026114 
0.031899 
0.038646 
0.000000 
0.051931 
0.069216 
0.000000 
0.034330 
0.034565 
0.000000 
0.038723 
0.047808 
0.000000 
0.000000 
0.000000 
0.000000 
0.000000 
0.078053 
0.115998 
0.000000 
0.058515 
0.036501 
0.000000 
0.046427 
0.028570 
0.031973 
0.020213 
0.000000 
0.000000 
0.000000 
0.000000 
0.025958 
0.059590 
0.000000 
0.032988 
0.032462 
0.033687 
0.000000 
0.025702 
0.034014 
0.063375 
0.000000 
0.028979 
0.029374 
0.051385 
0.029452 
0.000000 
0.000000 
0.000000 
0.038657 
0.000000 
0.113467 
0.000000 
0.000000 
0.063550 
0.051500 
0.000000 
0.106676 
0.000000 
0.098858 
0.081860 
0.070066 
0.000000 
0.087102 
0.000000 
0.038358 
0.027172 
0.049492 
0.000000 
0.059674 
0.073112 
0.062429 
0.079502 
0.049133 
0.064047 
0.069598 
0.055100 
0.038501 
0.041424 
0.000000 
0.000000 
0.049459 
0.040353 
0.000000 
0.076927 
0.067409 
0.060619 
0.025701 
0.000000 
0.122153 
0.000000 
0.095381 
0.000000 
0.057010 
0.009999 
0.010540 
0.061705 
0.000000 
0.076873 
0.028982 
0.000000 
0.000000 
0.012174 
0.031668 
0.053965 
0.000000 
0.101980 
0.045917 
0.063278 
0.058679 
0.069649 
0.073152 
0.051726 
0.049404 
0.043862 
0.042640 
0.047445 
0.067980 
0.000000 
0.000000 
0.062451 
0.030160 
0.045201 
0.057120 
0.034844 
0.059505 
0.056415 
0.025668 
0.024246 
0.046248 
0.039802 
0.085729 
0.000000 
0.064225 
0.020513 
0.018387 
0.021062 
0.026426 
0.028875 
0.082534 
0.000000 
0.069232 
0.025804 
0.045698 
0.000000 
0.079444 
0.020355 
0.000000 
0.008700 
0.054906 
0.000000 
0.000000 
0.173438 
0.000000 
0.083849 
0.070922 
0.094352 
0.000000 
0.000000 
0.000000 
0.000000 
0.112670 
0.000000 
0.082644 
0.086215 
0.072542 
0.043124 
0.093541 
0.000000 
0.102963 
0.000000 
0.142547 
0.000000 
0.105997 
0.000000 
0.000000 
0.104674 
0.065714 
0.029243 
0.036195 
0.035594 
0.029161 
0.043691 
0.113074 
0.000000 
0.129982 
0.000000 
0.051228 
0.125105 
0.000000 
0.093819 
0.080994 
0.000000 
0.054594 
0.010624 
0.024139 
0.098843 
0.000000 
0.075166 
0.056373 
0.015466 
0.000000 
0.000000 
0.000000 
0.020537 
0.081832 
0.000000 
0.099593 
0.000000 
0.148414 
0.000000 
0.000000 
0.082001 
0.062918 
0.026024 
0.023206 
0.047787 
0.033492 
0.065702 
0.068005 
0.035475 
0.062573 
0.095162 
0.000000 
0.094032 
0.000000 
0.000000 
0.104037 
0.102154 
0.000000 
0.130327 
0.000000 
0.120086 
0.038849 
0.021995 
0.054898 
0.060210 
0.028283 
0.047210 
0.000000 
0.093907 
0.065522 
0.027679 
0.025123 
0.080712 
0.000000 
0.055428 
0.046717 
0.022035 
0.021670 
0.064887 
0.103482 
0.000000 
0.000000 
0.101335 
0.000000 
0.100252 
0.084312 
0.084721 
0.114007 
0.000000 
0.082882 
0.101935 
0.085340 
0.000000 
0.000000 
0.110040 
0.000000 
0.137314 
0.095141 
0.117446 
0.000000 
0.000000 
0.090332 
0.108590 
0.113886 
0.000000 
0.000000 
0.050385 
0.016355 
0.023478 
0.063508 
0.109629 
0.000000 
0.181093 
0.000000 
0.087971 
0.032251 
0.069711 
0.097588 
0.055596 
0.082352 
0.105711 
0.033108 
0.013480 
0.057043 
0.000000 
0.149470 
0.089910 
0.000000 
0.053508 
0.020761 
0.038237 
0.011923 
0.000000 
0.033079 
0.091131 
0.092616 
0.000000 
0.000000 
0.170711 
0.000000 
0.126301 
0.000000 
0.060371 
0.049079 
0.000000 
0.056285 
0.067741 
0.069307 
0.063376 
0.000000 
0.000000 
0.101554 
0.081487 
0.079541 
0.108191 
0.000000 
0.000000 
0.175989 
0.000000 
0.135798 
0.000000 
0.051959 
0.055122 
0.000000 
0.000000 
0.062458 
0.036144 
0.087035 
0.075171 
0.000000 
0.087363 
0.030521 
0.042606 
0.087976 
0.066483 
0.000000 
0.078355 
0.024767 
0.023583 
0.035856 
0.067005 
0.065442 
0.038131 
0.082394 
0.000000 
0.090884 
0.047032 
0.066504 
0.068185 
0.063139 
0.000000 
0.108240 
0.132266 
0.000000 
0.125589 
0.111733 
0.000000 
0.000000 
0.109400 
0.000000 
0.115732 
0.077856 
0.000000 
0.087866 
0.116461 
0.111156 
0.034214 
0.015014 
0.053826 
0.000000 
0.000000 
0.000000 
0.000000 
0.144832 
0.058373 
0.060829 
0.148696 
0.000000 
0.119861 
0.000000 
0.000000 
0.064891 
0.022865 
0.068965 
0.000000 
0.000000 
0.113440 
0.000000 
0.058739 
0.046804 
0.000000 
0.038549 
0.012504 
0.045125 
0.000000 
0.103365 
0.121556 
0.000000 
0.163931 
0.000000 
0.153091 
0.000000 
0.059266 
0.029577 
0.049976 
0.059710 
0.000000 
0.000000 
0.065598 
0.067593 
0.068063 
0.080708 
0.000000 
0.084613 
0.086499 
0.113824 
0.116158 
0.000000 
0.000000 
0.086752 
0.054872 
0.020820 
0.030757 
0.092639 
0.000000 
0.061120 
0.050181 
0.000000 
0.075371 
0.134865 
0.000000 
0.076156 
0.089913 
0.000000 
0.062275 
0.085974 
0.000000 
0.058117 
0.062163 
0.070810 
0.072403 
0.036376 
0.018902 
0.029010 
0.080536 
0.000000 
0.087050 
0.000000 
0.052558 
0.044229 
0.128333 
0.000000 
0.154497 
0.000000 
0.000000 
0.083240 
0.101117 
0.072678 
0.055193 
0.107090 
0.094067 
0.096306 
0.126009 
0.127434 
0.000000 
0.000000 
0.072568 
0.028746 
0.057407 
0.073949 
0.079744 
0.119087 
0.000000 
0.000000 
0.106526 
0.000000 
0.000000 
0.000000 
0.136198 
0.000000 
0.000000 
0.074329 
0.037433 
0.074251 
0.118244 
0.000000 
0.072255 
0.061240 
0.020535 
0.014748 
0.037467 
0.011853 
0.000000 
0.028113 
0.087687 
0.000000 
0.084909 
0.147018 
0.000000 
0.155369 
0.000000 
0.108198 
0.039846 
0.048178 
0.032295 
0.031503 
0.069956 
0.101417 
0.053066 
0.060103 
0.051706 
0.100140 
0.000000 
0.138002 
0.000000 
0.000000 
0.074348 
0.085346 
0.113066 
0.074147 
0.035458 
0.027254 
0.048746 
0.043952 
0.061103 
0.026923 
0.018758 
0.048142 
0.062416 
0.000000 
0.000000 
0.107359 
0.000000 
0.081520 
0.026077 
0.035640 
0.086614 
0.072680 
0.000000 
0.000000 
0.000000 
0.113167 
0.062337 
0.022126 
0.025498 
0.056708 
0.064498 
0.054609 
0.025890 
0.062315 
0.000000 
0.154349 
0.000000 
0.116664 
0.078693 
0.067278 
0.000000 
0.069676 
0.098350 
0.000000 
0.000000 
0.000000 
0.000000 
0.000000 
0.176055 
0.000000 
0.121908 
0.074397 
0.000000 
0.086759 
0.033835 
0.034663 
0.083706 
0.112617 
0.096948 
0.121920 
0.134217 
0.125248 
0.103207 
0.000000 
0.130219 
0.087548 
0.108786 
0.000000 
0.114463 
0.074072 
0.041494 
0.054007 
0.022954 
0.000000 
0.000000 
0.000000 
0.016326 
0.057637 
0.077768 
0.065701 
0.066100 
0.000000 
0.000000 
0.119621 
0.000000 
0.105337 
0.067374 
0.000000 
0.103327 
0.078766 
0.081505 
0.000000 
0.140908 
0.000000 
0.129395 
0.000000 
0.127440 
0.000000 
0.101959 
0.071275 
0.042516 
0.095801 
0.000000 
0.000000 
0.104266 
0.100286 
0.000000 
0.100199 
0.085155 
0.059845 
0.020248 
0.017721 
0.020190 
0.059281 
0.081642 
0.083906 
0.094706 
0.034938 
0.012770 
0.043105 
0.000000 
0.066187 
0.078662 
0.125537 
0.000000 
0.000000 
0.000000 
0.057991 
0.029056 
0.056466 
0.000000 
0.047480 
0.023088 
0.076099 
0.000000 
0.162810 
0.000000 
0.081963 
0.073003 
0.071453 
0.071293 
0.068139 
0.000000 
0.139092 
0.134153 
0.000000 
0.000000 
0.000000 
0.186415 
0.000000 
0.000000 
0.125665 
0.101733 
0.000000 
0.046013 
0.033896 
0.102339 
0.000000 
0.000000 
0.000000 
0.000000 
0.000000 
0.116011 
0.000000 
0.128896 
0.000000 
0.000000 
0.000000 
0.000000 
0.077564 
0.098156 
0.000000 
0.089071 
0.023893 
0.016203 
0.045344 
0.060228 
0.000000 
0.000000 
0.066940 
0.026782 
0.055954 
0.064278 
0.046263 
0.089395 
0.000000 
0.077590 
0.145583 
0.000000 
0.000000 
0.123776 
0.000000 
0.000000 
0.158389 
0.000000 
0.097612 
0.044463 
0.061306 
0.074255 
0.071105 
0.065319 
0.000000 
0.098530 
0.104102 
0.000000 
0.000000 
0.142024 
0.000000 
0.000000 
0.000000 
0.062835 
0.047486 
0.018989 
0.031525 
0.095270 
0.000000 
0.000000 
0.048449 
0.010787 
0.022911 
0.059446 
0.074719 
0.073857 
0.081979 
0.000000 
0.146533 
0.090979 
0.081424 
0.080275 
0.076952 
0.057639 
0.022711 
0.034327 
0.108263 
0.000000 
0.000000 
0.139145 
0.084450 
0.000000 
0.000000 
0.112388 
0.082519 
0.096190 
0.000000 
0.077774 
0.130592 
0.000000 
0.000000 
0.000000 
0.202679 
0.000000 
0.000000 
0.081839 
0.051937 
0.025667 
0.065090 
0.000000 
0.116744 
0.084932 
0.074318 
0.066285 
0.063221 
0.071333 
0.000000 
0.121556 
0.115114 
0.084262 
0.076147 
0.066201 
0.072918 
0.000000 
0.181173 
0.000000 
0.065207 
0.048452 
0.000000 
0.066630 
0.100078 
0.000000 
0.056039 
0.010320 
0.013071 
0.029423 
0.049082 
0.037247 
0.060083 
0.074472 
0.000000 
0.000000 
0.000000 
0.099777 
0.150058 
0.000000 
0.154151 
0.000000 
0.062382 
0.020864 
0.053363 
0.000000 
0.000000 
0.096865 
0.061873 
0.029943 
0.035297 
0.071720 
0.110207 
0.107044 
0.151472 
0.000000 
0.138893 
0.073045 
0.000000 
0.046794 
0.050566 
0.000000 
0.128103 
0.071793 
0.019991 
0.016366 
0.052163 
0.083681 
0.000000 
0.000000 
0.070912 
0.097792 
0.000000 
0.114989 
0.000000 
0.000000 
0.000000 
0.075436 
0.041855 
0.098065 
0.000000 
0.120647 
0.104294 
0.000000 
0.079256 
0.108529 
0.122624 
0.000000 
0.000000 
0.070001 
0.060063 
0.035999 
0.071177 
0.000000 
0.173623 
0.173018 
0.000000 
0.168894 
0.000000 
0.070361 
0.021068 
0.027041 
0.105060 
0.000000 
0.127342 
0.077273 
0.039426 
0.008446 
0.010400 
0.024311 
0.093891 
0.000000 
0.000000 
0.059860 
0.023006 
0.027095 
0.064532 
0.000000 
0.000000 
0.000000 
0.076358 
0.026950 
0.053157 
0.057898 
0.048924 
0.087578 
0.027689 
0.000000 
0.020067 
0.080160 
0.000000 
0.061821 
0.068627 
0.076454 
0.110233 
0.000000 
0.108945 
0.071029 
0.000000 
0.171633 
0.000000 
0.089542 
0.023022 
0.000000 
0.015893 
0.059937 
0.096610 
0.000000 
0.053343 
0.030755 
0.052572 
0.068196 
0.000000 
0.000000 
0.000000 
0.139892 
0.000000 
0.058185 
0.048967 
0.023135 
0.023906 
0.080042 
0.000000 
0.056383 
0.017821 
0.042616 
0.000000 
0.132785 
0.000000 
0.101804 
0.031458 
0.040065 
0.098959 
0.103193 
0.000000 
0.000000 
0.000000 
0.099827 
0.107429 
0.000000 
0.000000 
0.083288 
0.037094 
0.064908 
0.100311 
0.000000 
0.103467 
0.000000 
0.100292 
0.043642 
0.068353 
0.059529 
0.039779 
0.099406 
0.000000 
0.000000 
0.000000 
0.131986 
0.000000 
0.055652 
0.016829 
0.049165 
0.000000 
0.000000 
0.000000 
0.000000 
0.108520 
0.000000 
0.000000 
0.000000 
0.039069 
0.113218 
0.112252 
0.036189 
0.022143 
0.049840 
0.036121 
0.080773 
0.130999 
0.000000 
0.072439 
0.021485 
0.047891 
0.000000 
0.080811 
0.000000 
0.041798 
0.012641 
0.043521 
0.000000 
0.131050 
0.086168 
0.000000 
0.000000 
0.069910 
0.066653 
0.035619 
0.030054 
0.096430 
0.000000 
0.096940 
0.032208 
0.011880 
0.000000 
0.000000 
0.024459 
0.063714 
0.066432 
0.044542 
0.082928 
0.000000 
0.059916 
0.068905 
0.070264 
0.071996 
0.075159 
0.059950 
0.028792 
0.030731 
0.044503 
0.018124 
0.024401 
0.054472 
0.052458 
0.017482 
0.021531 
0.081438 
0.000000 
0.138389 
0.080219 
0.029621 
0.058124 
0.000000 
0.114512 
0.000000 
0.206349 
0.000000 
0.128153 
0.000000 
0.146129 
0.000000 
0.065313 
0.023588 
0.061840 
0.000000 
0.099854 
0.042000 
0.064530 
0.069633 
0.075228 
0.000000 
0.000000 
0.054446 
0.043862 
0.102682 
0.118569 
0.000000 
0.071425 
0.054079 
0.015419 
0.000000 
0.015212 
0.060214 
0.095402 
0.128941 
0.151213 
0.000000 
0.041849 
0.020281 
0.014334 
0.064333 
0.000000 
0.000000 
0.073215 
0.068005 
0.000000 
0.071155 
0.081223 
0.129239 
0.000000 
0.074745 
0.023886 
0.024181 
0.045503 
0.032623 
0.043186 
0.012623 
0.000000 
0.021810 
0.094416 
0.000000 
0.111205 
0.082928 
0.066260 
0.035831 
0.062063 
0.057002 
0.028867 
0.067612 
0.000000 
0.064418 
0.033345 
0.048261 
0.015525 
0.010239 
0.051003 
0.000000 
0.112294 
0.104999 
0.000000 
0.087417 
0.045023 
0.060263 
0.033611 
0.053349 
0.000000 
0.063718 
0.067588 
0.094220 
0.000000 
0.046502 
0.023087 
0.048025 
0.000000 
0.038676 
0.010000 
0.026774 
0.087593 
0.000000 
0.000000 
0.054643 
0.059381 
0.000000 
0.087305 
0.142926 
0.000000 
0.000000 
0.127578 
0.000000 
0.088861 
0.071845 
0.056908 
0.025049 
0.057462 
0.000000 
0.096988 
0.032648 
0.050313 
0.000000 
0.092519 
0.000000 
0.097478 
0.030784 
0.045606 
0.000000 
0.063473 
0.055879 
0.017271 
0.000000 
0.000000 
0.000000 
0.000000 
0.029086 
0.096497 
0.000000 
0.000000 
0.108829 
0.000000 
0.082399 
0.038495 
0.071895 
0.000000 
0.000000 
0.081763 
0.100179 
0.000000 
0.106870 
0.000000 
0.000000 
0.000000 
0.097302 
0.073063 
0.059440 
0.035185 
0.045705 
0.019791 
0.000000 
0.000000 
0.014467 
0.071505 
0.000000 
0.000000 
0.114894 
0.077136 
0.064261 
0.000000 
0.000000 
0.063204 
0.064602 
0.070849 
0.047995 
0.094701 
0.000000 
0.055591 
0.026506 
0.074085 
0.147496 
0.000000 
0.000000 
0.132041 
0.070439 
0.105762 
0.000000 
0.060348 
0.038733 
0.092048 
0.074138 
0.000000 
0.000000 
0.132191 
0.048086 
0.046188 
0.026782 
0.041171 
0.012154 
0.000000 
0.000000 
0.021203 
0.055904 
0.058265 
0.019509 
0.020155 
0.058918 
0.060507 
0.000000 
0.109700 
0.113805 
0.086992 
0.000000 
0.066005 
0.057893 
0.000000 
0.046814 
0.035824 
0.086501 
0.000000 
0.043453 
0.020845 
0.042199 
0.032127 
0.068371 
0.062302 
0.019965 
0.018029 
0.049099 
0.027482 
0.018563 
0.000000 
0.000000 
0.000000 
0.000000 
0.000000 
0.043363 
0.000000 
0.106474 
0.100449 
0.042098 
0.120248 
0.000000 
0.101774 
0.077577 
0.078663 
0.075740 
0.061025 
0.000000 
0.100730 
0.082083 
0.079714 
0.111827 
0.000000 
0.154265 
0.000000 
0.000000 
0.088971 
0.000000 
0.044138 
0.019421 
0.040425 
0.029037 
0.061217 
0.087141 
0.117399 
0.000000 
0.000000 
0.066225 
0.074790 
0.103886 
0.071398 
0.000000 
0.105174 
0.106771 
0.000000 
0.000000 
0.065022 
0.055488 
0.000000 
0.000000 
0.000000 
0.140790 
0.000000 
0.148402 
0.000000 
0.000000 
0.076104 
0.066103 
0.000000 
0.071294 
0.081808 
0.143422 
0.000000 
0.095873 
0.000000 
0.043619 
0.019204 
0.000000 
0.000000 
0.000000 
0.000000 
0.021192 
0.046785 
0.017413 
0.018249 
0.048605 
0.029681 
0.053078 
0.068042 
0.000000 
0.075975 
0.093243 
0.033920 
0.033605 
0.086792 
0.043428 
0.054668 
0.036248 
0.043717 
0.015249 
0.009758 
0.010587 
0.023895 
0.084900 
0.000000 
0.044017 
0.024233 
0.062154 
0.072320 
0.058009 
0.028145 
0.042348 
0.019003 
0.000000 
0.000000 
0.027289 
0.087635 
0.079103 
0.000000 
0.050797 
0.051960 
0.103453 
0.000000 
0.000000 
0.070077 
0.057993 
0.031469 
0.053273 
0.072101 
0.000000 
0.073485 
0.052259 
0.109753 
0.000000 
0.000000 
0.114394 
0.051430 
0.081895 
0.033715 
0.044353 
0.000000 
0.085026 
0.000000 
0.097691 
0.093904 
0.000000 
0.106127 
0.042313 
0.068280 
0.000000 
0.078088 
0.101616 
0.000000 
0.000000 
0.099071 
0.065233 
0.019696 
0.017359 
0.053019 
0.066108 
0.064295 
0.046331 
0.103857 
0.000000 
0.000000 
0.119380 
0.073875 
0.073930 
0.000000 
0.061596 
0.064229 
0.000000 
0.000000 
0.070933 
0.050084 
0.026860 
0.041421 
0.012631 
0.000000 
0.000000 
0.012384 
0.041111 
0.000000 
0.047406 
0.053439 
0.000000 
0.045396 
0.029112 
0.057644 
0.072134 
0.093636 
0.000000 
0.053255 
0.063807 
0.000000 
0.108353 
0.000000 
0.063544 
0.020442 
0.018038 
0.045558 
0.023012 
0.045776 
0.000000 
0.086285 
0.030186 
0.051119 
0.000000 
0.000000 
0.000000 
0.090391 
0.000000 
0.081251 
0.028911 
0.020320 
0.051861 
0.000000 
0.092594 
0.062092 
0.028253 
0.029423 
0.077455 
0.000000 
0.110950 
0.063760 
0.000000 
0.050810 
0.031346 
0.059774 
0.000000 
0.112754 
0.083368 
0.096590 
0.147368 
0.000000 
0.081543 
0.064670 
0.000000 
0.054303 
0.031260 
0.056940 
0.070424 
0.092233 
0.000000 
0.095028 
0.000000 
0.075336 
0.063088 
0.085354 
0.000000 
0.083654 
0.083250 
0.105405 
0.070655 
0.032893 
0.014116 
0.000000 
0.000000 
0.000000 
0.000000 
0.000000 
0.012824 
0.062532 
0.000000 
0.109828 
0.078631 
0.000000 
0.092060 
0.065097 
0.021066 
0.018645 
0.056133 
0.064422 
0.022014 
0.017093 
0.043447 
0.000000 
0.043074 
0.015207 
0.015265 
0.040666 
0.027841 
0.049412 
0.032046 
0.065788 
0.089580 
0.034683 
0.045134 
0.000000 
0.084909 
0.000000 
0.082287 
0.038778 
0.072756 
0.000000 
0.131402 
0.000000 
0.103912 
0.034099 
0.055488 
0.000000 
0.061828 
0.039065 
0.093153 
0.072665 
0.028866 
0.027053 
0.093619 
0.000000 
0.100160 
0.060990 
0.122319 
0.000000 
0.095310 
0.073379 
0.073864 