# vtk DataFile Version 3.0
results.vtk
ASCII
DATASET RECTILINEAR_GRID
DIMENSIONS 100 100 1
X_COORDINATES 100 double
0.000000 0.010000 0.020000 0.030000 0.040000 0.050000 0.060000 0.070000 0.080000 0.090000 0.100000 0.110000 0.120000 0.130000 0.140000 0.150000 0.160000 0.170000 0.180000 0.190000 0.200000 0.210000 0.220000 0.230000 0.240000 0.250000 0.260000 0.270000 0.280000 0.290000 0.300000 0.310000 0.320000 0.330000 0.340000 0.350000 0.360000 0.370000 0.380000 0.390000 0.400000 0.410000 0.420000 0.430000 0.440000 0.450000 0.460000 0.470000 0.480000 0.490000 0.500000 0.510000 0.520000 0.530000 0.540000 0.550000 0.560000 0.570000 0.580000 0.590000 0.600000 0.610000 0.620000 0.630000 0.640000 0.650000 0.660000 0.670000 0.680000 0.690000 0.700000 0.710000 0.720000 0.730000 0.740000 0.750000 0.760000 0.770000 0.780000 0.790000 0.800000 0.810000 0.820000 0.830000 0.840000 0.850000 0.860000 0.870000 0.880000 0.890000 0.900000 0.910000 0.920000 0.930000 0.940000 0.950000 0.960000 0.970000 0.980000 0.990000 
Y_COORDINATES 100 double
0.000000 0.010000 0.020000 0.030000 0.040000 0.050000 0.060000 0.070000 0.080000 0.090000 0.100000 0.110000 0.120000 0.130000 0.140000 0.150000 0.160000 0.170000 0.180000 0.190000 0.200000 0.210000 0.220000 0.230000 0.240000 0.250000 0.260000 0.270000 0.280000 0.290000 0.300000 0.310000 0.320000 0.330000 0.340000 0.350000 0.360000 0.370000 0.380000 0.390000 0.400000 0.410000 0.420000 0.430000 0.440000 0.450000 0.460000 0.470000 0.480000 0.490000 0.500000 0.510000 0.520000 0.530000 0.540000 0.550000 0.560000 0.570000 0.580000 0.590000 0.600000 0.610000 0.620000 0.630000 0.640000 0.650000 0.660000 0.670000 0.680000 0.690000 0.700000 0.710000 0.720000 0.730000 0.740000 0.750000 0.760000 0.770000 0.780000 0.790000 0.800000 0.810000 0.820000 0.830000 0.840000 0.850000 0.860000 0.870000 0.880000 0.890000 0.900000 0.910000 0.920000 0.930000 0.940000 0.950000 0.960000 0.970000 0.980000 0.990000 
Z_COORDINATES 1 double
0
POINT_DATA 10000 
FIELD FieldData 1 
Concentração 1 10000 double 
0.027745 
0.000000 
0.024411 
0.021089 
0.000000 
0.018330 
0.018641 
0.018405 
0.000000 
0.013765 
0.016241 
0.019351 
0.000000 
0.014990 
0.000000 
0.000000 
0.000000 
0.020038 
0.000000 
0.000000 
0.020534 
0.000000 
0.000000 
0.020600 
0.020126 
0.000000 
0.013495 
0.011901 
0.012898 
0.012409 
0.013041 
0.016890 
0.018968 
0.016628 
0.012285 
0.011874 
0.013997 
0.000000 
0.009282 
0.009068 
0.000000 
0.015152 
0.017259 
0.014930 
0.007704 
0.000000 
0.004333 
0.010055 
0.000000 
0.000000 
0.000000 
0.021341 
0.000000 
0.006183 
0.000000 
0.000000 
0.000000 
0.013370 
0.025034 
0.000000 
0.025754 
0.000000 
0.018877 
0.017860 
0.016201 
0.013246 
0.013280 
0.015323 
0.014369 
0.012956 
0.009671 
0.007291 
0.005877 
0.006150 
0.007148 
0.008953 
0.000000 
0.004442 
0.000000 
0.000000 
0.005431 
0.009634 
0.014869 
0.019025 
0.022308 
0.000000 
0.017093 
0.000000 
0.012384 
0.014236 
0.000000 
0.000000 
0.012238 
0.007443 
0.007063 
0.010667 
0.000000 
0.011347 
0.006580 
0.000000 
0.026629 
0.000000 
0.000000 
0.019935 
0.000000 
0.016551 
0.000000 
0.000000 
0.014707 
0.014170 
0.017684 
0.000000 
0.016578 
0.013229 
0.015472 
0.020298 
0.022337 
0.020059 
0.016962 
0.016348 
0.018626 
0.000000 
0.020820 
0.020646 
0.000000 
0.018289 
0.014616 
0.013264 
0.000000 
0.013331 
0.013290 
0.000000 
0.000000 
0.000000 
0.012555 
0.012299 
0.000000 
0.011636 
0.008558 
0.008611 
0.011434 
0.014969 
0.000000 
0.000000 
0.007980 
0.000000 
0.004515 
0.009437 
0.014404 
0.020171 
0.000000 
0.020752 
0.013222 
0.005880 
0.000000 
0.000000 
0.005164 
0.015536 
0.000000 
0.000000 
0.024877 
0.000000 
0.017496 
0.000000 
0.000000 
0.014466 
0.014998 
0.000000 
0.015365 
0.000000 
0.010912 
0.009018 
0.007687 
0.007951 
0.008724 
0.009961 
0.008253 
0.004064 
0.000000 
0.002786 
0.006791 
0.010478 
0.000000 
0.019595 
0.000000 
0.000000 
0.015605 
0.013359 
0.012909 
0.014254 
0.016039 
0.000000 
0.011348 
0.007957 
0.007686 
0.010298 
0.000000 
0.011056 
0.007796 
0.004465 
0.000000 
0.022119 
0.019491 
0.017036 
0.014349 
0.011478 
0.011296 
0.012073 
0.012994 
0.015781 
0.000000 
0.000000 
0.015403 
0.011023 
0.013317 
0.000000 
0.000000 
0.000000 
0.016589 
0.014194 
0.000000 
0.017624 
0.018922 
0.000000 
0.020558 
0.000000 
0.017633 
0.016143 
0.015202 
0.000000 
0.011399 
0.012661 
0.014454 
0.013945 
0.012267 
0.013097 
0.013487 
0.010639 
0.008520 
0.009095 
0.010853 
0.000000 
0.014935 
0.013552 
0.008327 
0.004403 
0.005626 
0.000000 
0.010945 
0.015577 
0.000000 
0.000000 
0.013377 
0.006484 
0.000000 
0.000000 
0.007394 
0.017860 
0.000000 
0.000000 
0.022112 
0.016739 
0.013408 
0.013198 
0.014487 
0.016198 
0.017678 
0.000000 
0.015394 
0.013970 
0.012267 
0.000000 
0.010513 
0.000000 
0.011589 
0.000000 
0.009078 
0.004128 
0.000000 
0.003990 
0.000000 
0.010310 
0.014680 
0.000000 
0.018052 
0.015586 
0.013569 
0.014877 
0.016425 
0.000000 
0.013893 
0.012315 
0.010573 
0.010265 
0.010080 
0.010219 
0.011231 
0.010027 
0.000000 
0.006433 
0.017971 
0.000000 
0.017014 
0.000000 
0.013028 
0.008809 
0.007914 
0.010356 
0.014781 
0.019495 
0.022669 
0.000000 
0.013699 
0.009158 
0.010864 
0.016411 
0.000000 
0.000000 
0.015652 
0.012658 
0.013209 
0.015357 
0.018088 
0.000000 
0.019439 
0.018868 
0.000000 
0.000000 
0.015312 
0.011282 
0.008466 
0.009743 
0.012984 
0.014375 
0.014055 
0.000000 
0.000000 
0.011517 
0.010265 
0.000000 
0.010012 
0.010568 
0.011944 
0.000000 
0.008979 
0.006128 
0.005531 
0.006004 
0.006113 
0.010190 
0.015745 
0.000000 
0.013761 
0.008978 
0.003675 
0.000000 
0.007820 
0.000000 
0.000000 
0.023556 
0.000000 
0.014113 
0.011484 
0.011214 
0.014024 
0.000000 
0.000000 
0.017849 
0.014291 
0.000000 
0.012130 
0.011829 
0.010105 
0.009639 
0.010820 
0.000000 
0.009527 
0.004904 
0.000000 
0.003730 
0.006132 
0.007935 
0.011977 
0.000000 
0.015392 
0.013515 
0.014319 
0.000000 
0.000000 
0.018490 
0.013460 
0.011515 
0.012315 
0.000000 
0.000000 
0.011939 
0.011322 
0.009246 
0.007577 
0.005927 
0.012707 
0.013053 
0.014247 
0.000000 
0.014139 
0.009784 
0.008859 
0.013243 
0.000000 
0.000000 
0.000000 
0.020618 
0.012708 
0.008769 
0.009926 
0.012799 
0.015650 
0.016718 
0.015350 
0.013672 
0.013594 
0.000000 
0.018637 
0.000000 
0.017700 
0.016108 
0.000000 
0.015867 
0.000000 
0.008560 
0.005838 
0.009008 
0.000000 
0.000000 
0.015687 
0.015646 
0.014343 
0.012344 
0.012507 
0.011960 
0.009732 
0.008776 
0.010464 
0.012537 
0.010875 
0.009076 
0.007128 
0.004801 
0.000000 
0.006675 
0.011872 
0.014534 
0.014547 
0.000000 
0.006206 
0.000000 
0.005130 
0.012398 
0.000000 
0.017028 
0.015116 
0.012456 
0.000000 
0.010937 
0.013307 
0.000000 
0.020135 
0.017604 
0.013215 
0.011354 
0.011239 
0.000000 
0.009266 
0.007611 
0.008492 
0.010917 
0.010390 
0.007924 
0.005931 
0.005435 
0.005615 
0.006435 
0.010079 
0.014949 
0.016038 
0.015451 
0.016868 
0.021294 
0.000000 
0.000000 
0.014506 
0.013714 
0.015413 
0.016443 
0.014711 
0.013206 
0.000000 
0.010444 
0.008296 
0.007106 
0.011661 
0.011752 
0.013000 
0.015696 
0.000000 
0.012890 
0.012392 
0.017661 
0.024832 
0.000000 
0.026893 
0.000000 
0.012903 
0.009852 
0.000000 
0.012436 
0.013639 
0.016030 
0.000000 
0.000000 
0.015563 
0.016798 
0.019285 
0.000000 
0.016949 
0.013542 
0.011996 
0.010194 
0.008078 
0.004914 
0.000000 
0.007057 
0.012314 
0.000000 
0.014625 
0.000000 
0.014694 
0.014707 
0.000000 
0.016035 
0.012680 
0.010475 
0.012289 
0.000000 
0.014623 
0.000000 
0.011924 
0.008724 
0.006159 
0.007514 
0.000000 
0.012961 
0.000000 
0.014151 
0.007981 
0.000000 
0.000000 
0.005334 
0.008623 
0.010301 
0.000000 
0.010329 
0.010055 
0.010173 
0.011464 
0.015634 
0.000000 
0.000000 
0.014524 
0.011457 
0.011052 
0.010810 
0.009103 
0.007131 
0.008005 
0.011307 
0.000000 
0.011643 
0.000000 
0.008246 
0.007565 
0.007622 
0.010697 
0.000000 
0.000000 
0.000000 
0.020723 
0.000000 
0.022760 
0.018055 
0.014574 
0.000000 
0.000000 
0.000000 
0.015657 
0.013586 
0.000000 
0.012001 
0.011476 
0.011650 
0.000000 
0.015034 
0.015231 
0.016357 
0.000000 
0.015624 
0.016305 
0.000000 
0.000000 
0.000000 
0.000000 
0.019654 
0.012664 
0.009924 
0.010743 
0.000000 
0.012824 
0.000000 
0.017601 
0.017703 
0.018291 
0.019543 
0.000000 
0.022527 
0.020225 
0.015846 
0.011200 
0.008042 
0.006345 
0.005455 
0.005025 
0.007516 
0.009378 
0.010499 
0.010472 
0.011746 
0.000000 
0.014981 
0.000000 
0.000000 
0.000000 
0.012846 
0.014063 
0.000000 
0.016264 
0.017265 
0.000000 
0.014050 
0.010571 
0.008080 
0.008015 
0.009682 
0.013491 
0.000000 
0.010708 
0.004409 
0.000000 
0.000000 
0.000000 
0.004140 
0.007142 
0.008238 
0.008883 
0.000000 
0.009999 
0.012540 
0.016060 
0.000000 
0.016303 
0.013315 
0.000000 
0.010844 
0.000000 
0.007196 
0.008004 
0.000000 
0.013113 
0.013023 
0.011160 
0.009481 
0.000000 
0.009727 
0.011592 
0.015461 
0.018292 
0.019614 
0.000000 
0.024320 
0.000000 
0.017207 
0.013463 
0.015406 
0.019588 
0.020519 
0.017130 
0.013934 
0.012917 
0.012273 
0.000000 
0.000000 
0.017309 
0.000000 
0.000000 
0.017105 
0.016028 
0.000000 
0.016423 
0.000000 
0.026244 
0.026315 
0.023091 
0.000000 
0.013055 
0.010328 
0.009110 
0.008953 
0.009679 
0.012608 
0.000000 
0.018472 
0.000000 
0.000000 
0.023549 
0.000000 
0.000000 
0.000000 
0.015293 
0.010871 
0.009189 
0.009472 
0.009297 
0.000000 
0.008906 
0.008388 
0.007767 
0.007899 
0.008999 
0.011174 
0.015079 
0.016375 
0.013898 
0.011659 
0.000000 
0.014139 
0.015577 
0.000000 
0.019126 
0.000000 
0.000000 
0.008201 
0.004967 
0.005755 
0.010859 
0.000000 
0.013524 
0.008533 
0.004307 
0.000000 
0.000000 
0.000000 
0.005464 
0.008457 
0.008717 
0.008869 
0.009653 
0.011703 
0.013486 
0.016181 
0.000000 
0.014986 
0.012149 
0.009141 
0.006822 
0.004615 
0.006181 
0.009341 
0.012107 
0.000000 
0.011299 
0.009280 
0.010115 
0.012019 
0.014182 
0.016360 
0.000000 
0.017960 
0.021127 
0.000000 
0.000000 
0.018074 
0.014115 
0.015484 
0.000000 
0.000000 
0.000000 
0.016446 
0.013502 
0.011197 
0.011112 
0.011551 
0.014863 
0.016137 
0.017236 
0.000000 
0.012554 
0.011194 
0.012677 
0.018598 
0.000000 
0.000000 
0.021770 
0.018292 
0.014231 
0.000000 
0.009018 
0.007351 
0.007445 
0.009433 
0.012917 
0.017057 
0.000000 
0.022951 
0.023175 
0.027544 
0.000000 
0.000000 
0.018481 
0.000000 
0.013574 
0.000000 
0.013504 
0.011838 
0.010714 
0.010457 
0.009273 
0.007290 
0.006819 
0.008922 
0.012765 
0.000000 
0.011357 
0.008664 
0.008822 
0.010879 
0.014548 
0.018282 
0.019526 
0.018254 
0.013432 
0.006668 
0.000000 
0.000000 
0.008316 
0.014236 
0.000000 
0.013870 
0.010488 
0.005603 
0.000000 
0.000000 
0.006589 
0.000000 
0.011077 
0.010477 
0.012301 
0.000000 
0.013380 
0.014688 
0.000000 
0.017541 
0.014190 
0.009469 
0.005303 
0.000000 
0.005731 
0.008799 
0.011121 
0.000000 
0.011338 
0.009581 
0.010617 
0.000000 
0.000000 
0.000000 
0.016191 
0.015625 
0.000000 
0.021590 
0.021865 
0.000000 
0.016180 
0.016010 
0.019611 
0.000000 
0.019262 
0.000000 
0.000000 
0.011559 
0.009197 
0.007694 
0.013297 
0.014462 
0.000000 
0.012191 
0.008945 
0.007765 
0.009153 
0.014676 
0.000000 
0.021777 
0.000000 
0.000000 
0.015401 
0.013661 
0.010595 
0.009088 
0.009039 
0.009719 
0.011976 
0.014996 
0.000000 
0.000000 
0.021865 
0.000000 
0.000000 
0.024276 
0.018161 
0.014851 
0.015282 
0.000000 
0.018143 
0.016054 
0.014929 
0.000000 
0.000000 
0.009434 
0.007551 
0.009034 
0.000000 
0.012019 
0.009690 
0.006454 
0.005369 
0.008596 
0.000000 
0.000000 
0.000000 
0.000000 
0.014140 
0.007048 
0.000000 
0.003652 
0.008938 
0.013761 
0.000000 
0.018627 
0.000000 
0.011706 
0.004741 
0.000000 
0.006816 
0.000000 
0.014012 
0.014158 
0.016760 
0.000000 
0.013830 
0.013529 
0.017900 
0.000000 
0.000000 
0.013075 
0.008542 
0.007648 
0.011281 
0.012648 
0.011902 
0.012180 
0.011906 
0.010862 
0.010354 
0.011918 
0.013992 
0.014807 
0.014376 
0.013217 
0.015407 
0.000000 
0.021301 
0.020589 
0.000000 
0.016799 
0.000000 
0.016649 
0.014048 
0.013214 
0.013517 
0.013189 
0.010867 
0.007958 
0.012789 
0.000000 
0.012075 
0.009350 
0.007741 
0.007341 
0.007539 
0.010825 
0.000000 
0.017125 
0.017325 
0.016956 
0.015732 
0.000000 
0.013954 
0.013545 
0.000000 
0.012639 
0.000000 
0.012515 
0.013950 
0.015282 
0.017595 
0.000000 
0.000000 
0.021971 
0.000000 
0.015621 
0.016748 
0.021416 
0.000000 
0.022049 
0.000000 
0.015597 
0.013633 
0.011136 
0.009160 
0.009563 
0.010035 
0.009390 
0.000000 
0.004519 
0.000000 
0.004521 
0.010647 
0.014731 
0.016743 
0.017325 
0.000000 
0.008938 
0.005097 
0.006587 
0.000000 
0.013016 
0.015919 
0.000000 
0.000000 
0.000000 
0.006344 
0.000000 
0.004796 
0.011749 
0.000000 
0.019155 
0.000000 
0.021374 
0.015313 
0.013869 
0.018362 
0.000000 
0.020472 
0.000000 
0.012822 
0.014323 
0.000000 
0.000000 
0.015494 
0.013093 
0.000000 
0.000000 
0.011818 
0.011575 
0.013345 
0.014813 
0.000000 
0.013050 
0.013549 
0.017529 
0.000000 
0.000000 
0.018223 
0.017111 
0.016262 
0.013976 
0.011189 
0.011433 
0.014178 
0.000000 
0.000000 
0.010452 
0.012966 
0.012709 
0.011700 
0.010091 
0.010493 
0.000000 
0.006824 
0.006670 
0.011674 
0.015305 
0.016229 
0.000000 
0.014340 
0.000000 
0.015096 
0.000000 
0.015641 
0.015220 
0.014122 
0.011349 
0.011054 
0.012162 
0.013934 
0.017938 
0.020729 
0.020287 
0.019081 
0.017994 
0.019576 
0.000000 
0.000000 
0.000000 
0.020072 
0.014975 
0.014020 
0.000000 
0.011256 
0.000000 
0.008641 
0.005546 
0.004423 
0.002382 
0.000000 
0.000000 
0.009610 
0.012610 
0.013341 
0.000000 
0.012798 
0.009701 
0.007262 
0.008752 
0.012089 
0.012528 
0.012384 
0.014193 
0.015536 
0.011455 
0.004298 
0.000000 
0.000000 
0.010627 
0.019664 
0.025293 
0.000000 
0.000000 
0.019424 
0.016782 
0.000000 
0.024371 
0.024013 
0.020921 
0.018274 
0.019974 
0.000000 
0.000000 
0.018446 
0.013579 
0.012680 
0.014187 
0.015289 
0.015062 
0.000000 
0.018207 
0.000000 
0.015414 
0.015241 
0.017894 
0.000000 
0.018237 
0.017034 
0.000000 
0.017659 
0.000000 
0.012679 
0.014175 
0.017364 
0.000000 
0.016338 
0.011143 
0.022146 
0.021074 
0.020302 
0.018361 
0.019629 
0.013032 
0.005889 
0.000000 
0.013034 
0.021831 
0.000000 
0.013990 
0.009031 
0.009143 
0.011388 
0.000000 
0.017470 
0.021640 
0.000000 
0.015164 
0.014838 
0.000000 
0.017075 
0.019291 
0.000000 
0.000000 
0.000000 
0.000000 
0.000000 
0.026068 
0.034314 
0.000000 
0.021926 
0.015242 
0.000000 
0.015048 
0.012799 
0.012748 
0.009694 
0.000000 
0.000000 
0.000000 
0.000000 
0.011307 
0.018180 
0.000000 
0.011929 
0.011213 
0.010976 
0.000000 
0.010384 
0.014919 
0.019356 
0.000000 
0.012287 
0.013552 
0.017486 
0.012657 
0.000000 
0.000000 
0.000000 
0.014192 
0.000000 
0.036925 
0.000000 
0.000000 
0.026061 
0.021975 
0.000000 
0.034260 
0.000000 
0.036058 
0.032414 
0.028904 
0.000000 
0.027734 
0.000000 
0.017670 
0.015412 
0.020031 
0.000000 
0.023974 
0.026431 
0.027830 
0.028897 
0.024047 
0.025569 
0.026396 
0.023114 
0.018366 
0.015632 
0.000000 
0.000000 
0.015520 
0.016493 
0.000000 
0.027286 
0.026278 
0.021918 
0.014251 
0.000000 
0.046305 
0.000000 
0.039356 
0.000000 
0.024228 
0.009570 
0.010228 
0.028000 
0.000000 
0.031564 
0.016506 
0.000000 
0.000000 
0.006101 
0.012117 
0.021988 
0.000000 
0.037342 
0.028234 
0.031417 
0.032250 
0.035133 
0.035329 
0.027528 
0.023729 
0.020060 
0.019321 
0.022631 
0.030882 
0.000000 
0.000000 
0.029028 
0.020426 
0.023077 
0.025648 
0.022727 
0.027188 
0.026033 
0.018150 
0.017317 
0.022070 
0.024364 
0.034604 
0.000000 
0.025072 
0.013877 
0.013034 
0.013652 
0.013221 
0.017178 
0.031054 
0.000000 
0.027440 
0.016915 
0.020401 
0.000000 
0.028614 
0.012271 
0.000000 
0.007529 
0.023109 
0.000000 
0.000000 
0.065755 
0.000000 
0.041460 
0.035378 
0.041525 
0.000000 
0.000000 
0.000000 
0.000000 
0.048562 
0.000000 
0.039477 
0.038863 
0.035862 
0.029527 
0.039255 
0.000000 
0.044618 
0.000000 
0.057342 
0.000000 
0.046930 
0.000000 
0.000000 
0.043721 
0.031613 
0.018733 
0.015902 
0.016401 
0.019121 
0.028181 
0.046378 
0.000000 
0.050722 
0.000000 
0.024416 
0.051122 
0.000000 
0.042562 
0.041190 
0.000000 
0.025730 
0.011706 
0.018129 
0.041545 
0.000000 
0.037877 
0.026520 
0.010571 
0.000000 
0.000000 
0.000000 
0.012279 
0.031631 
0.000000 
0.044631 
0.000000 
0.061866 
0.000000 
0.000000 
0.042385 
0.031560 
0.019335 
0.016695 
0.022014 
0.023364 
0.032839 
0.033686 
0.025486 
0.030584 
0.038767 
0.000000 
0.039889 
0.000000 
0.000000 
0.044563 
0.044983 
0.000000 
0.052963 
0.000000 
0.045278 
0.024529 
0.017508 
0.025374 
0.027434 
0.019360 
0.022954 
0.000000 
0.038643 
0.031544 
0.020697 
0.018981 
0.031603 
0.000000 
0.025250 
0.019690 
0.015263 
0.017207 
0.031387 
0.045643 
0.000000 
0.000000 
0.044239 
0.000000 
0.043646 
0.043427 
0.044776 
0.051208 
0.000000 
0.042911 
0.045899 
0.045135 
0.000000 
0.000000 
0.050572 
0.000000 
0.055907 
0.049390 
0.054645 
0.000000 
0.000000 
0.048062 
0.049718 
0.051783 
0.000000 
0.000000 
0.024438 
0.013532 
0.017228 
0.031443 
0.049306 
0.000000 
0.072840 
0.000000 
0.039623 
0.023797 
0.044815 
0.046943 
0.039213 
0.044974 
0.046476 
0.024119 
0.014533 
0.028640 
0.000000 
0.061402 
0.046225 
0.000000 
0.023783 
0.012714 
0.013316 
0.006594 
0.000000 
0.020294 
0.039053 
0.047328 
0.000000 
0.000000 
0.075348 
0.000000 
0.058556 
0.000000 
0.029105 
0.022818 
0.000000 
0.027135 
0.033148 
0.034537 
0.031991 
0.000000 
0.000000 
0.044422 
0.041782 
0.042107 
0.048994 
0.000000 
0.000000 
0.068837 
0.000000 
0.055845 
0.000000 
0.025830 
0.026257 
0.000000 
0.000000 
0.029923 
0.023806 
0.035469 
0.037354 
0.000000 
0.036790 
0.023883 
0.027683 
0.036039 
0.031331 
0.000000 
0.029701 
0.018746 
0.020255 
0.027220 
0.035893 
0.034363 
0.026752 
0.034140 
0.000000 
0.039588 
0.032259 
0.034880 
0.034717 
0.034466 
0.000000 
0.051869 
0.062137 
0.000000 
0.058311 
0.052167 
0.000000 
0.000000 
0.050865 
0.000000 
0.054652 
0.044866 
0.000000 
0.049068 
0.054780 
0.049424 
0.025400 
0.015325 
0.025627 
0.000000 
0.000000 
0.000000 
0.000000 
0.062756 
0.038874 
0.032832 
0.064526 
0.000000 
0.058115 
0.000000 
0.000000 
0.034135 
0.020534 
0.035277 
0.000000 
0.000000 
0.050705 
0.000000 
0.026573 
0.019436 
0.000000 
0.013632 
0.007684 
0.020877 
0.000000 
0.046690 
0.057051 
0.000000 
0.074071 
0.000000 
0.065971 
0.000000 
0.030422 
0.020739 
0.023904 
0.028543 
0.000000 
0.000000 
0.034045 
0.034243 
0.036171 
0.041490 
0.000000 
0.045016 
0.046411 
0.052183 
0.054108 
0.000000 
0.000000 
0.044755 
0.029292 
0.018097 
0.021826 
0.038072 
0.000000 
0.029254 
0.024142 
0.000000 
0.037376 
0.052619 
0.000000 
0.038857 
0.038465 
0.000000 
0.030058 
0.034226 
0.000000 
0.028850 
0.031257 
0.036775 
0.038380 
0.027851 
0.018915 
0.020733 
0.032143 
0.000000 
0.035683 
0.000000 
0.026927 
0.030309 
0.052718 
0.000000 
0.067480 
0.000000 
0.000000 
0.044025 
0.045161 
0.039031 
0.038234 
0.051218 
0.052405 
0.054819 
0.062698 
0.063982 
0.000000 
0.000000 
0.039043 
0.023391 
0.028921 
0.036739 
0.042115 
0.054891 
0.000000 
0.000000 
0.050222 
0.000000 
0.000000 
0.000000 
0.066249 
0.000000 
0.000000 
0.040837 
0.029253 
0.039989 
0.053422 
0.000000 
0.038051 
0.030117 
0.016232 
0.010143 
0.012731 
0.006498 
0.000000 
0.018191 
0.036297 
0.000000 
0.045261 
0.062907 
0.000000 
0.068281 
0.000000 
0.048859 
0.028385 
0.025561 
0.023903 
0.025218 
0.036292 
0.045096 
0.035976 
0.034457 
0.035163 
0.045925 
0.000000 
0.056160 
0.000000 
0.000000 
0.040664 
0.045542 
0.051299 
0.039762 
0.026746 
0.021769 
0.026033 
0.029540 
0.031872 
0.020896 
0.015725 
0.022485 
0.030540 
0.000000 
0.000000 
0.047510 
0.000000 
0.033114 
0.019621 
0.023181 
0.034961 
0.035523 
0.000000 
0.000000 
0.000000 
0.050652 
0.031858 
0.019000 
0.019653 
0.027523 
0.029841 
0.025672 
0.020299 
0.033700 
0.000000 
0.067181 
0.000000 
0.055216 
0.042566 
0.036514 
0.000000 
0.036504 
0.045030 
0.000000 
0.000000 
0.000000 
0.000000 
0.000000 
0.081831 
0.000000 
0.057994 
0.040432 
0.000000 
0.036029 
0.025518 
0.028694 
0.044899 
0.053413 
0.051841 
0.056750 
0.063988 
0.060890 
0.058017 
0.000000 
0.062698 
0.048280 
0.049941 
0.000000 
0.052197 
0.040157 
0.030167 
0.028130 
0.016444 
0.000000 
0.000000 
0.000000 
0.011484 
0.027649 
0.037362 
0.033954 
0.034796 
0.000000 
0.000000 
0.054888 
0.000000 
0.046501 
0.036041 
0.000000 
0.046770 
0.042516 
0.044761 
0.000000 
0.059712 
0.000000 
0.053510 
0.000000 
0.051074 
0.000000 
0.045333 
0.037438 
0.030949 
0.042540 
0.000000 
0.000000 
0.045210 
0.043748 
0.000000 
0.045946 
0.042953 
0.031008 
0.017175 
0.014626 
0.017030 
0.030381 
0.041472 
0.043140 
0.040420 
0.022973 
0.013039 
0.020236 
0.000000 
0.034317 
0.041603 
0.057606 
0.000000 
0.000000 
0.000000 
0.030560 
0.023254 
0.028173 
0.000000 
0.022449 
0.020018 
0.039633 
0.000000 
0.070137 
0.000000 
0.045495 
0.039633 
0.037928 
0.037557 
0.036789 
0.000000 
0.057905 
0.064339 
0.000000 
0.000000 
0.000000 
0.089234 
0.000000 
0.000000 
0.058540 
0.044966 
0.000000 
0.023645 
0.025752 
0.046318 
0.000000 
0.000000 
0.000000 
0.000000 
0.000000 
0.054483 
0.000000 
0.061436 
0.000000 
0.000000 
0.000000 
0.000000 
0.040992 
0.044532 
0.000000 
0.037509 
0.016869 
0.011700 
0.018437 
0.027471 
0.000000 
0.000000 
0.032486 
0.020591 
0.027735 
0.032834 
0.031571 
0.039034 
0.000000 
0.040991 
0.060796 
0.000000 
0.000000 
0.059397 
0.000000 
0.000000 
0.068266 
0.000000 
0.043589 
0.029968 
0.032134 
0.037151 
0.036480 
0.033891 
0.000000 
0.042093 
0.044912 
0.000000 
0.000000 
0.059935 
0.000000 
0.000000 
0.000000 
0.030836 
0.021774 
0.015520 
0.022428 
0.040885 
0.000000 
0.000000 
0.022756 
0.011476 
0.017065 
0.030116 
0.037984 
0.039721 
0.044792 
0.000000 
0.062082 
0.048947 
0.044718 
0.043593 
0.040081 
0.029875 
0.019983 
0.026051 
0.049003 
0.000000 
0.000000 
0.058387 
0.045152 
0.000000 
0.000000 
0.050203 
0.042699 
0.042849 
0.000000 
0.044263 
0.064086 
0.000000 
0.000000 
0.000000 
0.088917 
0.000000 
0.000000 
0.042031 
0.026334 
0.019994 
0.033782 
0.000000 
0.054705 
0.046016 
0.040966 
0.032295 
0.031909 
0.037075 
0.000000 
0.056569 
0.053316 
0.044255 
0.039228 
0.035029 
0.038778 
0.000000 
0.070695 
0.000000 
0.033054 
0.022611 
0.000000 
0.031535 
0.042061 
0.000000 
0.026559 
0.010644 
0.012909 
0.020773 
0.025960 
0.026133 
0.031878 
0.040227 
0.000000 
0.000000 
0.000000 
0.054754 
0.065975 
0.000000 
0.066592 
0.000000 
0.031027 
0.016611 
0.024780 
0.000000 
0.000000 
0.040213 
0.030714 
0.023528 
0.026326 
0.037591 
0.050567 
0.056025 
0.065985 
0.000000 
0.056403 
0.035610 
0.000000 
0.020972 
0.024203 
0.000000 
0.048244 
0.033976 
0.016188 
0.013520 
0.025550 
0.040755 
0.000000 
0.000000 
0.037605 
0.044640 
0.000000 
0.055911 
0.000000 
0.000000 
0.000000 
0.041768 
0.031073 
0.044574 
0.000000 
0.055597 
0.048364 
0.000000 
0.042360 
0.049265 
0.054811 
0.000000 
0.000000 
0.036336 
0.032044 
0.028346 
0.040842 
0.000000 
0.079217 
0.081187 
0.000000 
0.075990 
0.000000 
0.036026 
0.017924 
0.020741 
0.045464 
0.000000 
0.059736 
0.043799 
0.031743 
0.009427 
0.010553 
0.017671 
0.040258 
0.000000 
0.000000 
0.032145 
0.020490 
0.021664 
0.033967 
0.000000 
0.000000 
0.000000 
0.039315 
0.020542 
0.024413 
0.028158 
0.030323 
0.035169 
0.017345 
0.000000 
0.013277 
0.031273 
0.000000 
0.032624 
0.035017 
0.039625 
0.050615 
0.000000 
0.050236 
0.040347 
0.000000 
0.067531 
0.000000 
0.038622 
0.016371 
0.000000 
0.010959 
0.027592 
0.039560 
0.000000 
0.027506 
0.022303 
0.026898 
0.034312 
0.000000 
0.000000 
0.000000 
0.057846 
0.000000 
0.029455 
0.023074 
0.016513 
0.017338 
0.031320 
0.000000 
0.026727 
0.014385 
0.019302 
0.000000 
0.052503 
0.000000 
0.045101 
0.025699 
0.029047 
0.045692 
0.055929 
0.000000 
0.000000 
0.000000 
0.055319 
0.051341 
0.000000 
0.000000 
0.043564 
0.028575 
0.033994 
0.044005 
0.000000 
0.046694 
0.000000 
0.043885 
0.031091 
0.034514 
0.031119 
0.029038 
0.046464 
0.000000 
0.000000 
0.000000 
0.061425 
0.000000 
0.026706 
0.013075 
0.023001 
0.000000 
0.000000 
0.000000 
0.000000 
0.050253 
0.000000 
0.000000 
0.000000 
0.026148 
0.050367 
0.049988 
0.027515 
0.019541 
0.025108 
0.027489 
0.044379 
0.062803 
0.000000 
0.038639 
0.018809 
0.022080 
0.000000 
0.031462 
0.000000 
0.017283 
0.007978 
0.019243 
0.000000 
0.051073 
0.043536 
0.000000 
0.000000 
0.036238 
0.035323 
0.027158 
0.024972 
0.042873 
0.000000 
0.042986 
0.023394 
0.011265 
0.000000 
0.000000 
0.017294 
0.031997 
0.034734 
0.030099 
0.034814 
0.000000 
0.031055 
0.034970 
0.036319 
0.037684 
0.038353 
0.031496 
0.022522 
0.021590 
0.021265 
0.014897 
0.017663 
0.024916 
0.023072 
0.013301 
0.015027 
0.032289 
0.000000 
0.055306 
0.040180 
0.023465 
0.029707 
0.000000 
0.054988 
0.000000 
0.088184 
0.000000 
0.063457 
0.000000 
0.061315 
0.000000 
0.034109 
0.020736 
0.030759 
0.000000 
0.043094 
0.029794 
0.033010 
0.035001 
0.037711 
0.000000 
0.000000 
0.028451 
0.029672 
0.046121 
0.053578 
0.000000 
0.036440 
0.024660 
0.010678 
0.000000 
0.010871 
0.030638 
0.049453 
0.060793 
0.064199 
0.000000 
0.017274 
0.013443 
0.013377 
0.032754 
0.000000 
0.000000 
0.038601 
0.034068 
0.000000 
0.037321 
0.044678 
0.061468 
0.000000 
0.041003 
0.021404 
0.018475 
0.021765 
0.020291 
0.018650 
0.007894 
0.000000 
0.014890 
0.039474 
0.000000 
0.051131 
0.043283 
0.035109 
0.026795 
0.031127 
0.028781 
0.022895 
0.033934 
0.000000 
0.033401 
0.024060 
0.022176 
0.011560 
0.010159 
0.025193 
0.000000 
0.050351 
0.047921 
0.000000 
0.039187 
0.030946 
0.031745 
0.025120 
0.028073 
0.000000 
0.032267 
0.033658 
0.039733 
0.000000 
0.023031 
0.016734 
0.021210 
0.000000 
0.014987 
0.008907 
0.016747 
0.035162 
0.000000 
0.000000 
0.026200 
0.028129 
0.000000 
0.045206 
0.061625 
0.000000 
0.000000 
0.060769 
0.000000 
0.046234 
0.037344 
0.028533 
0.019420 
0.028338 
0.000000 
0.039753 
0.023160 
0.024362 
0.000000 
0.038252 
0.000000 
0.040092 
0.021746 
0.022717 
0.000000 
0.031845 
0.027157 
0.012765 
0.000000 
0.000000 
0.000000 
0.000000 
0.019387 
0.042449 
0.000000 
0.000000 
0.049878 
0.000000 
0.033422 
0.026630 
0.037438 
0.000000 
0.000000 
0.041754 
0.043275 
0.000000 
0.047605 
0.000000 
0.000000 
0.000000 
0.052008 
0.039149 
0.030718 
0.023308 
0.021462 
0.012740 
0.000000 
0.000000 
0.012988 
0.034709 
0.000000 
0.000000 
0.052461 
0.040157 
0.033232 
0.000000 
0.000000 
0.031943 
0.033281 
0.036655 
0.032809 
0.040412 
0.000000 
0.026000 
0.019753 
0.036397 
0.059506 
0.000000 
0.000000 
0.055850 
0.044924 
0.048842 
0.000000 
0.031830 
0.026992 
0.038328 
0.036966 
0.000000 
0.000000 
0.052075 
0.030154 
0.022317 
0.017040 
0.016575 
0.007194 
0.000000 
0.000000 
0.013386 
0.025700 
0.026402 
0.015814 
0.016429 
0.027765 
0.031479 
0.000000 
0.050510 
0.052645 
0.046895 
0.000000 
0.034707 
0.029565 
0.000000 
0.023656 
0.023984 
0.034806 
0.000000 
0.020024 
0.014721 
0.019309 
0.022315 
0.033170 
0.030126 
0.016541 
0.014985 
0.023449 
0.020728 
0.014739 
0.000000 
0.000000 
0.000000 
0.000000 
0.000000 
0.019169 
0.000000 
0.046662 
0.044170 
0.030298 
0.046465 
0.000000 
0.044944 
0.040699 
0.041123 
0.038678 
0.032203 
0.000000 
0.043674 
0.042419 
0.043198 
0.053085 
0.000000 
0.066911 
0.000000 
0.000000 
0.037482 
0.000000 
0.019743 
0.012188 
0.016310 
0.019664 
0.031923 
0.044648 
0.054424 
0.000000 
0.000000 
0.034944 
0.037677 
0.044455 
0.036970 
0.000000 
0.046041 
0.047112 
0.000000 
0.000000 
0.030013 
0.026243 
0.000000 
0.000000 
0.000000 
0.058780 
0.000000 
0.063542 
0.000000 
0.000000 
0.039249 
0.034182 
0.000000 
0.036301 
0.041646 
0.057924 
0.000000 
0.040781 
0.000000 
0.019248 
0.011700 
0.000000 
0.000000 
0.000000 
0.000000 
0.013594 
0.020253 
0.013775 
0.014660 
0.022550 
0.020783 
0.027113 
0.034356 
0.000000 
0.039068 
0.039821 
0.025068 
0.024535 
0.036002 
0.028672 
0.028513 
0.024143 
0.020515 
0.012241 
0.010181 
0.011127 
0.017701 
0.033588 
0.000000 
0.020931 
0.017916 
0.029970 
0.034798 
0.028468 
0.018165 
0.017861 
0.011274 
0.000000 
0.000000 
0.017339 
0.036017 
0.038679 
0.000000 
0.025828 
0.034710 
0.046378 
0.000000 
0.000000 
0.035985 
0.029491 
0.022630 
0.027131 
0.035399 
0.000000 
0.039968 
0.038418 
0.053608 
0.000000 
0.000000 
0.052109 
0.033741 
0.033465 
0.021588 
0.020475 
0.000000 
0.033490 
0.000000 
0.043589 
0.048045 
0.000000 
0.046729 
0.030654 
0.036537 
0.000000 
0.040732 
0.045134 
0.000000 
0.000000 
0.041763 
0.030330 
0.014755 
0.012865 
0.022999 
0.030099 
0.031258 
0.031259 
0.046988 
0.000000 
0.000000 
0.054223 
0.039185 
0.036726 
0.000000 
0.030289 
0.032324 
0.000000 
0.000000 
0.033627 
0.023255 
0.016997 
0.017011 
0.007851 
0.000000 
0.000000 
0.007510 
0.016927 
0.000000 
0.021102 
0.024111 
0.000000 
0.021795 
0.020053 
0.028221 
0.034683 
0.039288 
0.000000 
0.027653 
0.032659 
0.000000 
0.048344 
0.000000 
0.031738 
0.017091 
0.014408 
0.019837 
0.016535 
0.022445 
0.000000 
0.034569 
0.020905 
0.024993 
0.000000 
0.000000 
0.000000 
0.038295 
0.000000 
0.031989 
0.018808 
0.015732 
0.025382 
0.000000 
0.038633 
0.030726 
0.021939 
0.026691 
0.040920 
0.000000 
0.048722 
0.032546 
0.000000 
0.024956 
0.022315 
0.030860 
0.000000 
0.050897 
0.046351 
0.051860 
0.063423 
0.000000 
0.045183 
0.036672 
0.000000 
0.028221 
0.022043 
0.027375 
0.032750 
0.037915 
0.000000 
0.041194 
0.000000 
0.038207 
0.034338 
0.042936 
0.000000 
0.043435 
0.042796 
0.045795 
0.035769 
0.023359 
0.012721 
0.000000 
0.000000 
0.000000 
0.000000 
0.000000 
0.011600 
0.031000 
0.000000 
0.050194 
0.041592 
0.000000 
0.038235 
0.030635 
0.017276 
0.015789 
0.026780 
0.029888 
0.017792 
0.014131 
0.019728 
0.000000 
0.018698 
0.010861 
0.010583 
0.016775 
0.017669 
0.022674 
0.021592 
0.030351 
0.034794 
0.022064 
0.021339 
0.000000 
0.033302 
0.000000 
0.034157 
0.027418 
0.038586 
0.000000 
0.060085 
0.000000 
0.044498 
0.024495 
0.026634 
0.000000 
0.029575 
0.026412 
0.038841 
0.034984 
0.021815 
0.020758 
0.039221 
0.000000 
0.045004 
0.037788 
0.048059 
0.000000 
0.040407 
0.035671 
0.036121 