# vtk DataFile Version 3.0
results.vtk
ASCII
DATASET RECTILINEAR_GRID
DIMENSIONS 100 100 1
X_COORDINATES 100 double
0.000000 0.010000 0.020000 0.030000 0.040000 0.050000 0.060000 0.070000 0.080000 0.090000 0.100000 0.110000 0.120000 0.130000 0.140000 0.150000 0.160000 0.170000 0.180000 0.190000 0.200000 0.210000 0.220000 0.230000 0.240000 0.250000 0.260000 0.270000 0.280000 0.290000 0.300000 0.310000 0.320000 0.330000 0.340000 0.350000 0.360000 0.370000 0.380000 0.390000 0.400000 0.410000 0.420000 0.430000 0.440000 0.450000 0.460000 0.470000 0.480000 0.490000 0.500000 0.510000 0.520000 0.530000 0.540000 0.550000 0.560000 0.570000 0.580000 0.590000 0.600000 0.610000 0.620000 0.630000 0.640000 0.650000 0.660000 0.670000 0.680000 0.690000 0.700000 0.710000 0.720000 0.730000 0.740000 0.750000 0.760000 0.770000 0.780000 0.790000 0.800000 0.810000 0.820000 0.830000 0.840000 0.850000 0.860000 0.870000 0.880000 0.890000 0.900000 0.910000 0.920000 0.930000 0.940000 0.950000 0.960000 0.970000 0.980000 0.990000 
Y_COORDINATES 100 double
0.000000 0.010000 0.020000 0.030000 0.040000 0.050000 0.060000 0.070000 0.080000 0.090000 0.100000 0.110000 0.120000 0.130000 0.140000 0.150000 0.160000 0.170000 0.180000 0.190000 0.200000 0.210000 0.220000 0.230000 0.240000 0.250000 0.260000 0.270000 0.280000 0.290000 0.300000 0.310000 0.320000 0.330000 0.340000 0.350000 0.360000 0.370000 0.380000 0.390000 0.400000 0.410000 0.420000 0.430000 0.440000 0.450000 0.460000 0.470000 0.480000 0.490000 0.500000 0.510000 0.520000 0.530000 0.540000 0.550000 0.560000 0.570000 0.580000 0.590000 0.600000 0.610000 0.620000 0.630000 0.640000 0.650000 0.660000 0.670000 0.680000 0.690000 0.700000 0.710000 0.720000 0.730000 0.740000 0.750000 0.760000 0.770000 0.780000 0.790000 0.800000 0.810000 0.820000 0.830000 0.840000 0.850000 0.860000 0.870000 0.880000 0.890000 0.900000 0.910000 0.920000 0.930000 0.940000 0.950000 0.960000 0.970000 0.980000 0.990000 
Z_COORDINATES 1 double
0
POINT_DATA 10000 
FIELD FieldData 1 
Concentração 1 10000 double 
0.018110 
0.000000 
0.015936 
0.013957 
0.000000 
0.011999 
0.011977 
0.011700 
0.000000 
0.009573 
0.011031 
0.012523 
0.000000 
0.010067 
0.000000 
0.000000 
0.000000 
0.013313 
0.000000 
0.000000 
0.013314 
0.000000 
0.000000 
0.013716 
0.013222 
0.000000 
0.009375 
0.008345 
0.008637 
0.008460 
0.008924 
0.010941 
0.012063 
0.010792 
0.008503 
0.008140 
0.008943 
0.000000 
0.006307 
0.006218 
0.000000 
0.009878 
0.011001 
0.009460 
0.005074 
0.000000 
0.003010 
0.006612 
0.000000 
0.000000 
0.000000 
0.013732 
0.000000 
0.004175 
0.000000 
0.000000 
0.000000 
0.009025 
0.016120 
0.000000 
0.016882 
0.000000 
0.012472 
0.011626 
0.010637 
0.009224 
0.009247 
0.010147 
0.009620 
0.008583 
0.006692 
0.005218 
0.004358 
0.004458 
0.005064 
0.005893 
0.000000 
0.002839 
0.000000 
0.000000 
0.003713 
0.006593 
0.009860 
0.012555 
0.014301 
0.000000 
0.011212 
0.000000 
0.008587 
0.009569 
0.000000 
0.000000 
0.008049 
0.005408 
0.005138 
0.007006 
0.000000 
0.007280 
0.004385 
0.000000 
0.017315 
0.000000 
0.000000 
0.013204 
0.000000 
0.010883 
0.000000 
0.000000 
0.009832 
0.009829 
0.011737 
0.000000 
0.010971 
0.009199 
0.010456 
0.013238 
0.014527 
0.013337 
0.011514 
0.011060 
0.012270 
0.000000 
0.013746 
0.013677 
0.000000 
0.012046 
0.010030 
0.009098 
0.000000 
0.008815 
0.008891 
0.000000 
0.000000 
0.000000 
0.008578 
0.008321 
0.000000 
0.007634 
0.005998 
0.006026 
0.007632 
0.009676 
0.000000 
0.000000 
0.005201 
0.000000 
0.003100 
0.006228 
0.009465 
0.013007 
0.000000 
0.013340 
0.008807 
0.004089 
0.000000 
0.000000 
0.003594 
0.010294 
0.000000 
0.000000 
0.016313 
0.000000 
0.011611 
0.000000 
0.000000 
0.009820 
0.010116 
0.000000 
0.010081 
0.000000 
0.007329 
0.006114 
0.005320 
0.005409 
0.005910 
0.006458 
0.005322 
0.002726 
0.000000 
0.001806 
0.004433 
0.006965 
0.000000 
0.012632 
0.000000 
0.000000 
0.010484 
0.009182 
0.008956 
0.009623 
0.010416 
0.000000 
0.007628 
0.005702 
0.005500 
0.006872 
0.000000 
0.007144 
0.005113 
0.003020 
0.000000 
0.014466 
0.013003 
0.011453 
0.009740 
0.008044 
0.007785 
0.008286 
0.009068 
0.010789 
0.000000 
0.000000 
0.010300 
0.007913 
0.009155 
0.000000 
0.000000 
0.000000 
0.011187 
0.009800 
0.000000 
0.011737 
0.012671 
0.000000 
0.013440 
0.000000 
0.011606 
0.010661 
0.009888 
0.000000 
0.007733 
0.008502 
0.009573 
0.009370 
0.008499 
0.008757 
0.008787 
0.007260 
0.006030 
0.006227 
0.007248 
0.000000 
0.009573 
0.008667 
0.005634 
0.003128 
0.003791 
0.000000 
0.007315 
0.010275 
0.000000 
0.000000 
0.008831 
0.004475 
0.000000 
0.000000 
0.004974 
0.011458 
0.000000 
0.000000 
0.014600 
0.011388 
0.009332 
0.009036 
0.009740 
0.010751 
0.011563 
0.000000 
0.010176 
0.009145 
0.008084 
0.000000 
0.006819 
0.000000 
0.007368 
0.000000 
0.005830 
0.002848 
0.000000 
0.002501 
0.000000 
0.006787 
0.009512 
0.000000 
0.011837 
0.010575 
0.009506 
0.010082 
0.010833 
0.000000 
0.009392 
0.008386 
0.007339 
0.006965 
0.006820 
0.006980 
0.007416 
0.006634 
0.000000 
0.004249 
0.011857 
0.000000 
0.011274 
0.000000 
0.008790 
0.006455 
0.005941 
0.007449 
0.010148 
0.012960 
0.014638 
0.000000 
0.009377 
0.006754 
0.007668 
0.010767 
0.000000 
0.000000 
0.010575 
0.008913 
0.009156 
0.010458 
0.012102 
0.000000 
0.012883 
0.012408 
0.000000 
0.000000 
0.009829 
0.007508 
0.005981 
0.006798 
0.008658 
0.009522 
0.009413 
0.000000 
0.000000 
0.007791 
0.006988 
0.000000 
0.006789 
0.007176 
0.007955 
0.000000 
0.006104 
0.004363 
0.003911 
0.004085 
0.004274 
0.007008 
0.010186 
0.000000 
0.009014 
0.005940 
0.002464 
0.000000 
0.005057 
0.000000 
0.000000 
0.015043 
0.000000 
0.009628 
0.007981 
0.007841 
0.009417 
0.000000 
0.000000 
0.011671 
0.009655 
0.000000 
0.008019 
0.007666 
0.006746 
0.006444 
0.007058 
0.000000 
0.006181 
0.003398 
0.000000 
0.002522 
0.004116 
0.005520 
0.008007 
0.000000 
0.010369 
0.009521 
0.009960 
0.000000 
0.000000 
0.011943 
0.009292 
0.008116 
0.008368 
0.000000 
0.000000 
0.007958 
0.007517 
0.006316 
0.005185 
0.004222 
0.008849 
0.009028 
0.009635 
0.000000 
0.009258 
0.006977 
0.006577 
0.009163 
0.000000 
0.000000 
0.000000 
0.013424 
0.008861 
0.006402 
0.006936 
0.008739 
0.010481 
0.011105 
0.010334 
0.009368 
0.009355 
0.000000 
0.012297 
0.000000 
0.011921 
0.010892 
0.000000 
0.010094 
0.000000 
0.005732 
0.004095 
0.006038 
0.000000 
0.000000 
0.010215 
0.010158 
0.009482 
0.008464 
0.008391 
0.008004 
0.006831 
0.006341 
0.007238 
0.008208 
0.007333 
0.006176 
0.004962 
0.003407 
0.000000 
0.004657 
0.007853 
0.009471 
0.009373 
0.000000 
0.004005 
0.000000 
0.003346 
0.007828 
0.000000 
0.011078 
0.009938 
0.008347 
0.000000 
0.007454 
0.008935 
0.000000 
0.012851 
0.011594 
0.009152 
0.007835 
0.007532 
0.000000 
0.006237 
0.005386 
0.005898 
0.007127 
0.006815 
0.005324 
0.003908 
0.003748 
0.003995 
0.004741 
0.006993 
0.009781 
0.010670 
0.010586 
0.011519 
0.013826 
0.000000 
0.000000 
0.009891 
0.009329 
0.010192 
0.010676 
0.009737 
0.008787 
0.000000 
0.006998 
0.005785 
0.005095 
0.008155 
0.008281 
0.009018 
0.010295 
0.000000 
0.008746 
0.008733 
0.011848 
0.016016 
0.000000 
0.017228 
0.000000 
0.008916 
0.006844 
0.000000 
0.008231 
0.009211 
0.010540 
0.000000 
0.000000 
0.010565 
0.011378 
0.012792 
0.000000 
0.011584 
0.009544 
0.008305 
0.007032 
0.005541 
0.003471 
0.000000 
0.004712 
0.007856 
0.000000 
0.009484 
0.000000 
0.009594 
0.009713 
0.000000 
0.010289 
0.008499 
0.007331 
0.008226 
0.000000 
0.009492 
0.000000 
0.007804 
0.005936 
0.004256 
0.005112 
0.000000 
0.008405 
0.000000 
0.008825 
0.005175 
0.000000 
0.000000 
0.003479 
0.005564 
0.006786 
0.000000 
0.006901 
0.006716 
0.006874 
0.007862 
0.010254 
0.000000 
0.000000 
0.009758 
0.007957 
0.007447 
0.007086 
0.006042 
0.005012 
0.005544 
0.007290 
0.000000 
0.007457 
0.000000 
0.005434 
0.005104 
0.005398 
0.007317 
0.000000 
0.000000 
0.000000 
0.013614 
0.000000 
0.014739 
0.012100 
0.010003 
0.000000 
0.000000 
0.000000 
0.010507 
0.009179 
0.000000 
0.007939 
0.007582 
0.007617 
0.000000 
0.009961 
0.010203 
0.010784 
0.000000 
0.010271 
0.010904 
0.000000 
0.000000 
0.000000 
0.000000 
0.012946 
0.008806 
0.006917 
0.007071 
0.000000 
0.008461 
0.000000 
0.011337 
0.011708 
0.012224 
0.013036 
0.000000 
0.014771 
0.013491 
0.010840 
0.007976 
0.005901 
0.004684 
0.003961 
0.003518 
0.005074 
0.006348 
0.007070 
0.007160 
0.007762 
0.000000 
0.009722 
0.000000 
0.000000 
0.000000 
0.008550 
0.009129 
0.000000 
0.010621 
0.011098 
0.000000 
0.009086 
0.006965 
0.005515 
0.005423 
0.006515 
0.008646 
0.000000 
0.006915 
0.003037 
0.000000 
0.000000 
0.000000 
0.002808 
0.004773 
0.005606 
0.005991 
0.000000 
0.006922 
0.008569 
0.010552 
0.000000 
0.010636 
0.008951 
0.000000 
0.007029 
0.000000 
0.004803 
0.005367 
0.000000 
0.008381 
0.008377 
0.007311 
0.006314 
0.000000 
0.006620 
0.007976 
0.010262 
0.011963 
0.012926 
0.000000 
0.015653 
0.000000 
0.011705 
0.009559 
0.010475 
0.012729 
0.013283 
0.011475 
0.009574 
0.008706 
0.008197 
0.000000 
0.000000 
0.011175 
0.000000 
0.000000 
0.011102 
0.010430 
0.000000 
0.010911 
0.000000 
0.016920 
0.017192 
0.015273 
0.000000 
0.008959 
0.007098 
0.006268 
0.006143 
0.006685 
0.008384 
0.000000 
0.012103 
0.000000 
0.000000 
0.015539 
0.000000 
0.000000 
0.000000 
0.010287 
0.007526 
0.006397 
0.006360 
0.006206 
0.000000 
0.006127 
0.005911 
0.005576 
0.005607 
0.006248 
0.007662 
0.009834 
0.010513 
0.009143 
0.007839 
0.000000 
0.009262 
0.010359 
0.000000 
0.012280 
0.000000 
0.000000 
0.005484 
0.003467 
0.004008 
0.007103 
0.000000 
0.008643 
0.005785 
0.002987 
0.000000 
0.000000 
0.000000 
0.003631 
0.005587 
0.005976 
0.006154 
0.006771 
0.008032 
0.009204 
0.010628 
0.000000 
0.009943 
0.008200 
0.006282 
0.004626 
0.003209 
0.004349 
0.006274 
0.007900 
0.000000 
0.007491 
0.006422 
0.006798 
0.007944 
0.009355 
0.010722 
0.000000 
0.012042 
0.013822 
0.000000 
0.000000 
0.012108 
0.009932 
0.010619 
0.000000 
0.000000 
0.000000 
0.010800 
0.009042 
0.007714 
0.007475 
0.007607 
0.010093 
0.010649 
0.011045 
0.000000 
0.008442 
0.007723 
0.008788 
0.012231 
0.000000 
0.000000 
0.014348 
0.012105 
0.009580 
0.000000 
0.006249 
0.005326 
0.005442 
0.006684 
0.008788 
0.011297 
0.000000 
0.014938 
0.015554 
0.017886 
0.000000 
0.000000 
0.012210 
0.000000 
0.008965 
0.000000 
0.008942 
0.008058 
0.007373 
0.007040 
0.006275 
0.005210 
0.005005 
0.006261 
0.008341 
0.000000 
0.007575 
0.006042 
0.006048 
0.007411 
0.009680 
0.011901 
0.012694 
0.011783 
0.008780 
0.004569 
0.000000 
0.000000 
0.005544 
0.009111 
0.000000 
0.009012 
0.006829 
0.003661 
0.000000 
0.000000 
0.004115 
0.000000 
0.007350 
0.007318 
0.008330 
0.000000 
0.009111 
0.009914 
0.000000 
0.011388 
0.009446 
0.006594 
0.003830 
0.000000 
0.004079 
0.006133 
0.007481 
0.000000 
0.007549 
0.006660 
0.007165 
0.000000 
0.000000 
0.000000 
0.010717 
0.010642 
0.000000 
0.014058 
0.014273 
0.000000 
0.010986 
0.010935 
0.012741 
0.000000 
0.012384 
0.000000 
0.000000 
0.007832 
0.006474 
0.005588 
0.009080 
0.009552 
0.000000 
0.008089 
0.006322 
0.005646 
0.006588 
0.009781 
0.000000 
0.014079 
0.000000 
0.000000 
0.010233 
0.008979 
0.007293 
0.006381 
0.006300 
0.006812 
0.008169 
0.010009 
0.000000 
0.000000 
0.014546 
0.000000 
0.000000 
0.015855 
0.012283 
0.010200 
0.010327 
0.000000 
0.011936 
0.010834 
0.009904 
0.000000 
0.000000 
0.006362 
0.005375 
0.006141 
0.000000 
0.007677 
0.006333 
0.004474 
0.003761 
0.005753 
0.000000 
0.000000 
0.000000 
0.000000 
0.009126 
0.004781 
0.000000 
0.002498 
0.005948 
0.008986 
0.000000 
0.011704 
0.000000 
0.007287 
0.003034 
0.000000 
0.004234 
0.000000 
0.009146 
0.009679 
0.011066 
0.000000 
0.009553 
0.009491 
0.011755 
0.000000 
0.000000 
0.008727 
0.006079 
0.005372 
0.007524 
0.008477 
0.008193 
0.008175 
0.007908 
0.007345 
0.007186 
0.008087 
0.009322 
0.009899 
0.009720 
0.009245 
0.010486 
0.000000 
0.013876 
0.013386 
0.000000 
0.011268 
0.000000 
0.011054 
0.009645 
0.009030 
0.009057 
0.008731 
0.007344 
0.005730 
0.008645 
0.000000 
0.008115 
0.006629 
0.005605 
0.005173 
0.005359 
0.007305 
0.000000 
0.011481 
0.011606 
0.011181 
0.010355 
0.000000 
0.009149 
0.008826 
0.000000 
0.008443 
0.000000 
0.008583 
0.009475 
0.010427 
0.011983 
0.000000 
0.000000 
0.014546 
0.000000 
0.010810 
0.011499 
0.014013 
0.000000 
0.014401 
0.000000 
0.010279 
0.008954 
0.007455 
0.006318 
0.006407 
0.006578 
0.006039 
0.000000 
0.002895 
0.000000 
0.003086 
0.007093 
0.009723 
0.010951 
0.011053 
0.000000 
0.005957 
0.003592 
0.004527 
0.000000 
0.008667 
0.010377 
0.000000 
0.000000 
0.000000 
0.003999 
0.000000 
0.003102 
0.007583 
0.000000 
0.012852 
0.000000 
0.013997 
0.010783 
0.009943 
0.012290 
0.000000 
0.013481 
0.000000 
0.009077 
0.009757 
0.000000 
0.000000 
0.010376 
0.008889 
0.000000 
0.000000 
0.008136 
0.008194 
0.009220 
0.010067 
0.000000 
0.009171 
0.009615 
0.011785 
0.000000 
0.000000 
0.012068 
0.011415 
0.010865 
0.009546 
0.008068 
0.008205 
0.009613 
0.000000 
0.000000 
0.007168 
0.009414 
0.009213 
0.008562 
0.007583 
0.007449 
0.000000 
0.004757 
0.004658 
0.008129 
0.010646 
0.011032 
0.000000 
0.009334 
0.000000 
0.009657 
0.000000 
0.010335 
0.010369 
0.009703 
0.008237 
0.008106 
0.008803 
0.010086 
0.012393 
0.013874 
0.013590 
0.012723 
0.012138 
0.013192 
0.000000 
0.000000 
0.000000 
0.013545 
0.010379 
0.009422 
0.000000 
0.007595 
0.000000 
0.005879 
0.003683 
0.002781 
0.001520 
0.000000 
0.000000 
0.006639 
0.008639 
0.009036 
0.000000 
0.008337 
0.006514 
0.005271 
0.006341 
0.008293 
0.008669 
0.008693 
0.009709 
0.010310 
0.007654 
0.002884 
0.000000 
0.000000 
0.007310 
0.013304 
0.017153 
0.000000 
0.000000 
0.013669 
0.012001 
0.000000 
0.016517 
0.016604 
0.014898 
0.013314 
0.013943 
0.000000 
0.000000 
0.012507 
0.009720 
0.009000 
0.009871 
0.010655 
0.010729 
0.000000 
0.012670 
0.000000 
0.011154 
0.011176 
0.012568 
0.000000 
0.012380 
0.011502 
0.000000 
0.011404 
0.000000 
0.009020 
0.010136 
0.012048 
0.000000 
0.011035 
0.008096 
0.016352 
0.015746 
0.014982 
0.013802 
0.013940 
0.009413 
0.004512 
0.000000 
0.009600 
0.015241 
0.000000 
0.009800 
0.006096 
0.005954 
0.007524 
0.000000 
0.012044 
0.014906 
0.000000 
0.011525 
0.011358 
0.000000 
0.013004 
0.014256 
0.000000 
0.000000 
0.000000 
0.000000 
0.000000 
0.018028 
0.023043 
0.000000 
0.015591 
0.011294 
0.000000 
0.010769 
0.009591 
0.009468 
0.007332 
0.000000 
0.000000 
0.000000 
0.000000 
0.008315 
0.012631 
0.000000 
0.008611 
0.008019 
0.007763 
0.000000 
0.007757 
0.010916 
0.013438 
0.000000 
0.009191 
0.010005 
0.012235 
0.009096 
0.000000 
0.000000 
0.000000 
0.010062 
0.000000 
0.025536 
0.000000 
0.000000 
0.019057 
0.016348 
0.000000 
0.023835 
0.000000 
0.025630 
0.023399 
0.020965 
0.000000 
0.019357 
0.000000 
0.013482 
0.012081 
0.014781 
0.000000 
0.017546 
0.019151 
0.020479 
0.020860 
0.018054 
0.018704 
0.019058 
0.016968 
0.013699 
0.011295 
0.000000 
0.000000 
0.010986 
0.012331 
0.000000 
0.019618 
0.018927 
0.015706 
0.010932 
0.000000 
0.035648 
0.000000 
0.030695 
0.000000 
0.018993 
0.008438 
0.009024 
0.022129 
0.000000 
0.024646 
0.013431 
0.000000 
0.000000 
0.004743 
0.009250 
0.016920 
0.000000 
0.028600 
0.023323 
0.025521 
0.026530 
0.028519 
0.028381 
0.022559 
0.019160 
0.016087 
0.015460 
0.018116 
0.024339 
0.000000 
0.000000 
0.023123 
0.017166 
0.018789 
0.020472 
0.018892 
0.021676 
0.020795 
0.015337 
0.014735 
0.017938 
0.020057 
0.026949 
0.000000 
0.019576 
0.011745 
0.011070 
0.011439 
0.010993 
0.014159 
0.023803 
0.000000 
0.021415 
0.014225 
0.016313 
0.000000 
0.021677 
0.010003 
0.000000 
0.006470 
0.018088 
0.000000 
0.000000 
0.050051 
0.000000 
0.033151 
0.028542 
0.032764 
0.000000 
0.000000 
0.000000 
0.000000 
0.038022 
0.000000 
0.031517 
0.030984 
0.028966 
0.024806 
0.030958 
0.000000 
0.035196 
0.000000 
0.044392 
0.000000 
0.037094 
0.000000 
0.000000 
0.034128 
0.025284 
0.015611 
0.012789 
0.013270 
0.016083 
0.023463 
0.036399 
0.000000 
0.039206 
0.000000 
0.019783 
0.040268 
0.000000 
0.034245 
0.033376 
0.000000 
0.020827 
0.010629 
0.015624 
0.032643 
0.000000 
0.030584 
0.021315 
0.008872 
0.000000 
0.000000 
0.000000 
0.009990 
0.024497 
0.000000 
0.035595 
0.000000 
0.048560 
0.000000 
0.000000 
0.034460 
0.025748 
0.016614 
0.014285 
0.017855 
0.019722 
0.026585 
0.027257 
0.021651 
0.024781 
0.030363 
0.000000 
0.031549 
0.000000 
0.000000 
0.035154 
0.035704 
0.000000 
0.041440 
0.000000 
0.034951 
0.020414 
0.015155 
0.020355 
0.021832 
0.016355 
0.018750 
0.000000 
0.030247 
0.025415 
0.017752 
0.016373 
0.024709 
0.000000 
0.020098 
0.015553 
0.012917 
0.014868 
0.025372 
0.036199 
0.000000 
0.000000 
0.035099 
0.000000 
0.034621 
0.035176 
0.036448 
0.040647 
0.000000 
0.034884 
0.036747 
0.036840 
0.000000 
0.000000 
0.040477 
0.000000 
0.043788 
0.039993 
0.043702 
0.000000 
0.000000 
0.039247 
0.039888 
0.041324 
0.000000 
0.000000 
0.020023 
0.011935 
0.014795 
0.025524 
0.039190 
0.000000 
0.056677 
0.000000 
0.031958 
0.020493 
0.037414 
0.038267 
0.033351 
0.036974 
0.036929 
0.020681 
0.013247 
0.023506 
0.000000 
0.047844 
0.037296 
0.000000 
0.018889 
0.010417 
0.010039 
0.005248 
0.000000 
0.016729 
0.030956 
0.038247 
0.000000 
0.000000 
0.059568 
0.000000 
0.046695 
0.000000 
0.023631 
0.018547 
0.000000 
0.022032 
0.026782 
0.027987 
0.026135 
0.000000 
0.000000 
0.035269 
0.033946 
0.034431 
0.039145 
0.000000 
0.000000 
0.053351 
0.000000 
0.043773 
0.000000 
0.021212 
0.021296 
0.000000 
0.000000 
0.024064 
0.019958 
0.027904 
0.030098 
0.000000 
0.029241 
0.020600 
0.023147 
0.028316 
0.025036 
0.000000 
0.023111 
0.016189 
0.017803 
0.023442 
0.029631 
0.028316 
0.022775 
0.027162 
0.000000 
0.031588 
0.027190 
0.028654 
0.028428 
0.028628 
0.000000 
0.041972 
0.049659 
0.000000 
0.046582 
0.041890 
0.000000 
0.000000 
0.040948 
0.000000 
0.044088 
0.037513 
0.000000 
0.040581 
0.044058 
0.039344 
0.021839 
0.013856 
0.020897 
0.000000 
0.000000 
0.000000 
0.000000 
0.049738 
0.032692 
0.027330 
0.051219 
0.000000 
0.047000 
0.000000 
0.000000 
0.028185 
0.018253 
0.028876 
0.000000 
0.000000 
0.040209 
0.000000 
0.021156 
0.015240 
0.000000 
0.010298 
0.006321 
0.016877 
0.000000 
0.037359 
0.045756 
0.000000 
0.058978 
0.000000 
0.052106 
0.000000 
0.025021 
0.017713 
0.019559 
0.023164 
0.000000 
0.000000 
0.027950 
0.028047 
0.029767 
0.033797 
0.000000 
0.036828 
0.037963 
0.041764 
0.043381 
0.000000 
0.000000 
0.036356 
0.024389 
0.016027 
0.018659 
0.029895 
0.000000 
0.023627 
0.019729 
0.000000 
0.030106 
0.040727 
0.000000 
0.031548 
0.030573 
0.000000 
0.024252 
0.026751 
0.000000 
0.023526 
0.025597 
0.030130 
0.031543 
0.024035 
0.017002 
0.017816 
0.025372 
0.000000 
0.028173 
0.000000 
0.022318 
0.025716 
0.041668 
0.000000 
0.053482 
0.000000 
0.000000 
0.036069 
0.036196 
0.032222 
0.032408 
0.041533 
0.043251 
0.045437 
0.051034 
0.052123 
0.000000 
0.000000 
0.032251 
0.020440 
0.023776 
0.029750 
0.034408 
0.043899 
0.000000 
0.000000 
0.040575 
0.000000 
0.000000 
0.000000 
0.053351 
0.000000 
0.000000 
0.033830 
0.025353 
0.032921 
0.042495 
0.000000 
0.031208 
0.024537 
0.014016 
0.008526 
0.009560 
0.005161 
0.000000 
0.015175 
0.028676 
0.000000 
0.037063 
0.049743 
0.000000 
0.054153 
0.000000 
0.039034 
0.024240 
0.021425 
0.020602 
0.021895 
0.029784 
0.036046 
0.030385 
0.028945 
0.029734 
0.036914 
0.000000 
0.043998 
0.000000 
0.000000 
0.033622 
0.037280 
0.040960 
0.032688 
0.023053 
0.019051 
0.021811 
0.024914 
0.026185 
0.018094 
0.013867 
0.018353 
0.024758 
0.000000 
0.000000 
0.037687 
0.000000 
0.026187 
0.016895 
0.019405 
0.027456 
0.028666 
0.000000 
0.000000 
0.000000 
0.040250 
0.026215 
0.016784 
0.017068 
0.022392 
0.023904 
0.020834 
0.017714 
0.027958 
0.000000 
0.053178 
0.000000 
0.044509 
0.035141 
0.030316 
0.000000 
0.030092 
0.036335 
0.000000 
0.000000 
0.000000 
0.000000 
0.000000 
0.065564 
0.000000 
0.046733 
0.033384 
0.000000 
0.028630 
0.022058 
0.025019 
0.036882 
0.043085 
0.042324 
0.045391 
0.051312 
0.049187 
0.047720 
0.000000 
0.050423 
0.039786 
0.040089 
0.000000 
0.041653 
0.033126 
0.025815 
0.023288 
0.014045 
0.000000 
0.000000 
0.000000 
0.009665 
0.022257 
0.029891 
0.027796 
0.028645 
0.000000 
0.000000 
0.043806 
0.000000 
0.037064 
0.029763 
0.000000 
0.037473 
0.035018 
0.036903 
0.000000 
0.047245 
0.000000 
0.042283 
0.000000 
0.040034 
0.000000 
0.036173 
0.030759 
0.026465 
0.034107 
0.000000 
0.000000 
0.035863 
0.034817 
0.000000 
0.036906 
0.034744 
0.025506 
0.015098 
0.012885 
0.014944 
0.024925 
0.033526 
0.034902 
0.031992 
0.019318 
0.011749 
0.016640 
0.000000 
0.028110 
0.034036 
0.045823 
0.000000 
0.000000 
0.000000 
0.025417 
0.020300 
0.023145 
0.000000 
0.018483 
0.017684 
0.032434 
0.000000 
0.055243 
0.000000 
0.037632 
0.032818 
0.031278 
0.030900 
0.030420 
0.000000 
0.045688 
0.051707 
0.000000 
0.000000 
0.000000 
0.071777 
0.000000 
0.000000 
0.046838 
0.035844 
0.000000 
0.019800 
0.022305 
0.037195 
0.000000 
0.000000 
0.000000 
0.000000 
0.000000 
0.043817 
0.000000 
0.049317 
0.000000 
0.000000 
0.000000 
0.000000 
0.033611 
0.035793 
0.000000 
0.029693 
0.014303 
0.009977 
0.014476 
0.021819 
0.000000 
0.000000 
0.026212 
0.017786 
0.022740 
0.026896 
0.026693 
0.031328 
0.000000 
0.033601 
0.047750 
0.000000 
0.000000 
0.047854 
0.000000 
0.000000 
0.053821 
0.000000 
0.034871 
0.025237 
0.026426 
0.030109 
0.029748 
0.027822 
0.000000 
0.033358 
0.035569 
0.000000 
0.000000 
0.047241 
0.000000 
0.000000 
0.000000 
0.025008 
0.017714 
0.013603 
0.019133 
0.032383 
0.000000 
0.000000 
0.018550 
0.010416 
0.014750 
0.024632 
0.030909 
0.032702 
0.036838 
0.000000 
0.048954 
0.040090 
0.036880 
0.035881 
0.032788 
0.024763 
0.017724 
0.022516 
0.039172 
0.000000 
0.000000 
0.046162 
0.037056 
0.000000 
0.000000 
0.039917 
0.034754 
0.034394 
0.000000 
0.036862 
0.051864 
0.000000 
0.000000 
0.000000 
0.070637 
0.000000 
0.000000 
0.034160 
0.021779 
0.017409 
0.027771 
0.000000 
0.043912 
0.037868 
0.034002 
0.026149 
0.026074 
0.030344 
0.000000 
0.045247 
0.042733 
0.036096 
0.032013 
0.028890 
0.031893 
0.000000 
0.054621 
0.000000 
0.026904 
0.018391 
0.000000 
0.025223 
0.032954 
0.000000 
0.021396 
0.009542 
0.011550 
0.017745 
0.021660 
0.022317 
0.026441 
0.033132 
0.000000 
0.000000 
0.000000 
0.044898 
0.052453 
0.000000 
0.052551 
0.000000 
0.025278 
0.014396 
0.020023 
0.000000 
0.000000 
0.031660 
0.025082 
0.020370 
0.022625 
0.030823 
0.040457 
0.045321 
0.052159 
0.000000 
0.044044 
0.028672 
0.000000 
0.016986 
0.019717 
0.000000 
0.037067 
0.027135 
0.014096 
0.011920 
0.020859 
0.032652 
0.000000 
0.000000 
0.031010 
0.036010 
0.000000 
0.045295 
0.000000 
0.000000 
0.000000 
0.034631 
0.026767 
0.035871 
0.000000 
0.044374 
0.038974 
0.000000 
0.034754 
0.039401 
0.043399 
0.000000 
0.000000 
0.029825 
0.026650 
0.024686 
0.034233 
0.000000 
0.063225 
0.065171 
0.000000 
0.060358 
0.000000 
0.029386 
0.015746 
0.017913 
0.035960 
0.000000 
0.047788 
0.036442 
0.027696 
0.008459 
0.009426 
0.015099 
0.031988 
0.000000 
0.000000 
0.026761 
0.018196 
0.018955 
0.028077 
0.000000 
0.000000 
0.000000 
0.032022 
0.017735 
0.019711 
0.022786 
0.024982 
0.027432 
0.014340 
0.000000 
0.011185 
0.024476 
0.000000 
0.026889 
0.028677 
0.032388 
0.040510 
0.000000 
0.040365 
0.033672 
0.000000 
0.052565 
0.000000 
0.030814 
0.013955 
0.000000 
0.009215 
0.022032 
0.030980 
0.000000 
0.022763 
0.019186 
0.022274 
0.027998 
0.000000 
0.000000 
0.000000 
0.045410 
0.000000 
0.024166 
0.018828 
0.014163 
0.014881 
0.024531 
0.000000 
0.021534 
0.012539 
0.015715 
0.000000 
0.040742 
0.000000 
0.035935 
0.022397 
0.024909 
0.036919 
0.045740 
0.000000 
0.000000 
0.000000 
0.045498 
0.041592 
0.000000 
0.000000 
0.035539 
0.024693 
0.028036 
0.035074 
0.000000 
0.037323 
0.000000 
0.034926 
0.026394 
0.028176 
0.025749 
0.024995 
0.037668 
0.000000 
0.000000 
0.000000 
0.048943 
0.000000 
0.021653 
0.011351 
0.018672 
0.000000 
0.000000 
0.000000 
0.000000 
0.040496 
0.000000 
0.000000 
0.000000 
0.021889 
0.039890 
0.039694 
0.023718 
0.017351 
0.020896 
0.023756 
0.036634 
0.050355 
0.000000 
0.031805 
0.016651 
0.017996 
0.000000 
0.024535 
0.000000 
0.013631 
0.006614 
0.015429 
0.000000 
0.039589 
0.035181 
0.000000 
0.000000 
0.029745 
0.029128 
0.023475 
0.021912 
0.034374 
0.000000 
0.034352 
0.020015 
0.009995 
0.000000 
0.000000 
0.014690 
0.026057 
0.028498 
0.025410 
0.027797 
0.000000 
0.025594 
0.028574 
0.029758 
0.030893 
0.031252 
0.026025 
0.019512 
0.018411 
0.017476 
0.013062 
0.015091 
0.019965 
0.018368 
0.011454 
0.012782 
0.025265 
0.000000 
0.042921 
0.032424 
0.020388 
0.024492 
0.000000 
0.044401 
0.000000 
0.069362 
0.000000 
0.051382 
0.000000 
0.048212 
0.000000 
0.028077 
0.018329 
0.025140 
0.000000 
0.034146 
0.025287 
0.027014 
0.028432 
0.030506 
0.000000 
0.000000 
0.023577 
0.025107 
0.036900 
0.042616 
0.000000 
0.029585 
0.019736 
0.009004 
0.000000 
0.009254 
0.024978 
0.039984 
0.048583 
0.050591 
0.000000 
0.013648 
0.011310 
0.011812 
0.026722 
0.000000 
0.000000 
0.031606 
0.027763 
0.000000 
0.030672 
0.036871 
0.049291 
0.000000 
0.033908 
0.018987 
0.016068 
0.017832 
0.016856 
0.014859 
0.006526 
0.000000 
0.012561 
0.031026 
0.000000 
0.040853 
0.035296 
0.028965 
0.023045 
0.025509 
0.023710 
0.019941 
0.027713 
0.000000 
0.027454 
0.020533 
0.017944 
0.009928 
0.009054 
0.020640 
0.000000 
0.040038 
0.038367 
0.000000 
0.031623 
0.026244 
0.026263 
0.021674 
0.023375 
0.000000 
0.026402 
0.027381 
0.031380 
0.000000 
0.018973 
0.014372 
0.016972 
0.000000 
0.011763 
0.007744 
0.013850 
0.027411 
0.000000 
0.000000 
0.021342 
0.022784 
0.000000 
0.036756 
0.048907 
0.000000 
0.000000 
0.048859 
0.000000 
0.037586 
0.030540 
0.023456 
0.016939 
0.023119 
0.000000 
0.031119 
0.019702 
0.019949 
0.000000 
0.030086 
0.000000 
0.031385 
0.018573 
0.018857 
0.000000 
0.025968 
0.022104 
0.010898 
0.000000 
0.000000 
0.000000 
0.000000 
0.016284 
0.033819 
0.000000 
0.000000 
0.039998 
0.000000 
0.026339 
0.022528 
0.030599 
0.000000 
0.000000 
0.033843 
0.034304 
0.000000 
0.037934 
0.000000 
0.000000 
0.000000 
0.042419 
0.032235 
0.025286 
0.019630 
0.017437 
0.010662 
0.000000 
0.000000 
0.011363 
0.027961 
0.000000 
0.000000 
0.041854 
0.032810 
0.027333 
0.000000 
0.000000 
0.026158 
0.027321 
0.029986 
0.027652 
0.031981 
0.000000 
0.020902 
0.016919 
0.029286 
0.046187 
0.000000 
0.000000 
0.044258 
0.037339 
0.039206 
0.000000 
0.026329 
0.022947 
0.030319 
0.029942 
0.000000 
0.000000 
0.040405 
0.024989 
0.018259 
0.014215 
0.013019 
0.005875 
0.000000 
0.000000 
0.011052 
0.020498 
0.021080 
0.013789 
0.014336 
0.022469 
0.025921 
0.000000 
0.040530 
0.042269 
0.038409 
0.000000 
0.028586 
0.024365 
0.000000 
0.019635 
0.020250 
0.027305 
0.000000 
0.016340 
0.012641 
0.015798 
0.018895 
0.026668 
0.024322 
0.014494 
0.013207 
0.019200 
0.017804 
0.012770 
0.000000 
0.000000 
0.000000 
0.000000 
0.000000 
0.015401 
0.000000 
0.036982 
0.035218 
0.025844 
0.036188 
0.000000 
0.035782 
0.033268 
0.033550 
0.031486 
0.026584 
0.000000 
0.034651 
0.034546 
0.035599 
0.042900 
0.000000 
0.052918 
0.000000 
0.000000 
0.029726 
0.000000 
0.015896 
0.010160 
0.012895 
0.016609 
0.026205 
0.036191 
0.043481 
0.000000 
0.000000 
0.028799 
0.030609 
0.035131 
0.030232 
0.000000 
0.036572 
0.037380 
0.000000 
0.000000 
0.023904 
0.021170 
0.000000 
0.000000 
0.000000 
0.046211 
0.000000 
0.050156 
0.000000 
0.000000 
0.032036 
0.028002 
0.000000 
0.029506 
0.033692 
0.045030 
0.000000 
0.032162 
0.000000 
0.015454 
0.009653 
0.000000 
0.000000 
0.000000 
0.000000 
0.011307 
0.016167 
0.011990 
0.012790 
0.018328 
0.017750 
0.022407 
0.028070 
0.000000 
0.031869 
0.031693 
0.021552 
0.021046 
0.028572 
0.024115 
0.023571 
0.020342 
0.016823 
0.010763 
0.009176 
0.010056 
0.015242 
0.026293 
0.000000 
0.017212 
0.015454 
0.024205 
0.027928 
0.023093 
0.015145 
0.014166 
0.009235 
0.000000 
0.000000 
0.014449 
0.028364 
0.031105 
0.000000 
0.021473 
0.029246 
0.037122 
0.000000 
0.000000 
0.029495 
0.024322 
0.019461 
0.022445 
0.028742 
0.000000 
0.033151 
0.032998 
0.043695 
0.000000 
0.000000 
0.041717 
0.028335 
0.026608 
0.018136 
0.016680 
0.000000 
0.026240 
0.000000 
0.034920 
0.038880 
0.000000 
0.037251 
0.026222 
0.030174 
0.000000 
0.033331 
0.036117 
0.000000 
0.000000 
0.032950 
0.024251 
0.012579 
0.010989 
0.018192 
0.023825 
0.025164 
0.026273 
0.037669 
0.000000 
0.000000 
0.043243 
0.032195 
0.029810 
0.000000 
0.024708 
0.026397 
0.000000 
0.000000 
0.026985 
0.018845 
0.014209 
0.013473 
0.006505 
0.000000 
0.000000 
0.006196 
0.013433 
0.000000 
0.017016 
0.019366 
0.000000 
0.017910 
0.017090 
0.023014 
0.027954 
0.031111 
0.000000 
0.023006 
0.026884 
0.000000 
0.038529 
0.000000 
0.025905 
0.015014 
0.012602 
0.016011 
0.014217 
0.018524 
0.000000 
0.027164 
0.017784 
0.020503 
0.000000 
0.000000 
0.000000 
0.030356 
0.000000 
0.025040 
0.015734 
0.013538 
0.020744 
0.000000 
0.030591 
0.025125 
0.019042 
0.023678 
0.033661 
0.000000 
0.038729 
0.026775 
0.000000 
0.020568 
0.019147 
0.025451 
0.000000 
0.040739 
0.038368 
0.042571 
0.050426 
0.000000 
0.037496 
0.030777 
0.000000 
0.023400 
0.018818 
0.022220 
0.026202 
0.029894 
0.000000 
0.032882 
0.000000 
0.031165 
0.028551 
0.034841 
0.000000 
0.035421 
0.034805 
0.036357 
0.029136 
0.019877 
0.011163 
0.000000 
0.000000 
0.000000 
0.000000 
0.000000 
0.010202 
0.025278 
0.000000 
0.040233 
0.034123 
0.000000 
0.030283 
0.024699 
0.015127 
0.013988 
0.021757 
0.023995 
0.015470 
0.012436 
0.016050 
0.000000 
0.014973 
0.009258 
0.008965 
0.013362 
0.014749 
0.018321 
0.018155 
0.024221 
0.027029 
0.018430 
0.017479 
0.000000 
0.026101 
0.000000 
0.027279 
0.023476 
0.031812 
0.000000 
0.047788 
0.000000 
0.035256 
0.020927 
0.021697 
0.000000 
0.023914 
0.022264 
0.030691 
0.028157 
0.018770 
0.017955 
0.031024 
0.000000 
0.035981 
0.031321 
0.037594 
0.000000 
0.031949 
0.028733 
0.029157 