# vtk DataFile Version 3.0
results.vtk
ASCII
DATASET RECTILINEAR_GRID
DIMENSIONS 100 100 1
X_COORDINATES 100 double
0.000000 0.010000 0.020000 0.030000 0.040000 0.050000 0.060000 0.070000 0.080000 0.090000 0.100000 0.110000 0.120000 0.130000 0.140000 0.150000 0.160000 0.170000 0.180000 0.190000 0.200000 0.210000 0.220000 0.230000 0.240000 0.250000 0.260000 0.270000 0.280000 0.290000 0.300000 0.310000 0.320000 0.330000 0.340000 0.350000 0.360000 0.370000 0.380000 0.390000 0.400000 0.410000 0.420000 0.430000 0.440000 0.450000 0.460000 0.470000 0.480000 0.490000 0.500000 0.510000 0.520000 0.530000 0.540000 0.550000 0.560000 0.570000 0.580000 0.590000 0.600000 0.610000 0.620000 0.630000 0.640000 0.650000 0.660000 0.670000 0.680000 0.690000 0.700000 0.710000 0.720000 0.730000 0.740000 0.750000 0.760000 0.770000 0.780000 0.790000 0.800000 0.810000 0.820000 0.830000 0.840000 0.850000 0.860000 0.870000 0.880000 0.890000 0.900000 0.910000 0.920000 0.930000 0.940000 0.950000 0.960000 0.970000 0.980000 0.990000 
Y_COORDINATES 100 double
0.000000 0.010000 0.020000 0.030000 0.040000 0.050000 0.060000 0.070000 0.080000 0.090000 0.100000 0.110000 0.120000 0.130000 0.140000 0.150000 0.160000 0.170000 0.180000 0.190000 0.200000 0.210000 0.220000 0.230000 0.240000 0.250000 0.260000 0.270000 0.280000 0.290000 0.300000 0.310000 0.320000 0.330000 0.340000 0.350000 0.360000 0.370000 0.380000 0.390000 0.400000 0.410000 0.420000 0.430000 0.440000 0.450000 0.460000 0.470000 0.480000 0.490000 0.500000 0.510000 0.520000 0.530000 0.540000 0.550000 0.560000 0.570000 0.580000 0.590000 0.600000 0.610000 0.620000 0.630000 0.640000 0.650000 0.660000 0.670000 0.680000 0.690000 0.700000 0.710000 0.720000 0.730000 0.740000 0.750000 0.760000 0.770000 0.780000 0.790000 0.800000 0.810000 0.820000 0.830000 0.840000 0.850000 0.860000 0.870000 0.880000 0.890000 0.900000 0.910000 0.920000 0.930000 0.940000 0.950000 0.960000 0.970000 0.980000 0.990000 
Z_COORDINATES 1 double
0
POINT_DATA 10000 
FIELD FieldData 1 
Concentração 1 10000 double 
0.011778 
0.000000 
0.010400 
0.009195 
0.000000 
0.007835 
0.007709 
0.007492 
0.000000 
0.006577 
0.007420 
0.008132 
0.000000 
0.006756 
0.000000 
0.000000 
0.000000 
0.008813 
0.000000 
0.000000 
0.008654 
0.000000 
0.000000 
0.009083 
0.008696 
0.000000 
0.006441 
0.005773 
0.005792 
0.005716 
0.006023 
0.007092 
0.007694 
0.007015 
0.005801 
0.005516 
0.005768 
0.000000 
0.004276 
0.004248 
0.000000 
0.006417 
0.007007 
0.005998 
0.003306 
0.000000 
0.002055 
0.004341 
0.000000 
0.000000 
0.000000 
0.008812 
0.000000 
0.002811 
0.000000 
0.000000 
0.000000 
0.005998 
0.010362 
0.000000 
0.011021 
0.000000 
0.008220 
0.007589 
0.007004 
0.006329 
0.006342 
0.006722 
0.006397 
0.005690 
0.004577 
0.003668 
0.003140 
0.003166 
0.003513 
0.003870 
0.000000 
0.001826 
0.000000 
0.000000 
0.002506 
0.004453 
0.006511 
0.008215 
0.009173 
0.000000 
0.007371 
0.000000 
0.005902 
0.006403 
0.000000 
0.000000 
0.005301 
0.003842 
0.003656 
0.004611 
0.000000 
0.004663 
0.002889 
0.000000 
0.011248 
0.000000 
0.000000 
0.008722 
0.000000 
0.007161 
0.000000 
0.000000 
0.006577 
0.006732 
0.007774 
0.000000 
0.007258 
0.006318 
0.007028 
0.008629 
0.009429 
0.008815 
0.007759 
0.007445 
0.008084 
0.000000 
0.009052 
0.009032 
0.000000 
0.007949 
0.006811 
0.006185 
0.000000 
0.005843 
0.005925 
0.000000 
0.000000 
0.000000 
0.005816 
0.005598 
0.000000 
0.005030 
0.004148 
0.004165 
0.005084 
0.006259 
0.000000 
0.000000 
0.003378 
0.000000 
0.002106 
0.004105 
0.006190 
0.008365 
0.000000 
0.008557 
0.005823 
0.002797 
0.000000 
0.000000 
0.002443 
0.006756 
0.000000 
0.000000 
0.010658 
0.000000 
0.007702 
0.000000 
0.000000 
0.006621 
0.006784 
0.000000 
0.006619 
0.000000 
0.004907 
0.004135 
0.003650 
0.003669 
0.003963 
0.004183 
0.003431 
0.001808 
0.000000 
0.001169 
0.002901 
0.004612 
0.000000 
0.008153 
0.000000 
0.000000 
0.007019 
0.006266 
0.006138 
0.006457 
0.006782 
0.000000 
0.005111 
0.004015 
0.003867 
0.004576 
0.000000 
0.004612 
0.003349 
0.002022 
0.000000 
0.009467 
0.008629 
0.007655 
0.006573 
0.005563 
0.005343 
0.005662 
0.006248 
0.007305 
0.000000 
0.000000 
0.006874 
0.005570 
0.006246 
0.000000 
0.000000 
0.000000 
0.007505 
0.006710 
0.000000 
0.007811 
0.008434 
0.000000 
0.008799 
0.000000 
0.007632 
0.007015 
0.006446 
0.000000 
0.005218 
0.005684 
0.006320 
0.006256 
0.005802 
0.005838 
0.005749 
0.004910 
0.004199 
0.004252 
0.004839 
0.000000 
0.006152 
0.005562 
0.003771 
0.002181 
0.002564 
0.000000 
0.004863 
0.006734 
0.000000 
0.000000 
0.005798 
0.003037 
0.000000 
0.000000 
0.003294 
0.007334 
0.000000 
0.000000 
0.009596 
0.007685 
0.006412 
0.006145 
0.006521 
0.007113 
0.007562 
0.000000 
0.006710 
0.006004 
0.005324 
0.000000 
0.004452 
0.000000 
0.004714 
0.000000 
0.003744 
0.001925 
0.000000 
0.001588 
0.000000 
0.004467 
0.006180 
0.000000 
0.007758 
0.007127 
0.006559 
0.006799 
0.007152 
0.000000 
0.006312 
0.005675 
0.005032 
0.004718 
0.004606 
0.004715 
0.004885 
0.004377 
0.000000 
0.002824 
0.007844 
0.000000 
0.007473 
0.000000 
0.005921 
0.004627 
0.004344 
0.005270 
0.006910 
0.008575 
0.009464 
0.000000 
0.006374 
0.004859 
0.005340 
0.007073 
0.000000 
0.000000 
0.007105 
0.006188 
0.006303 
0.007084 
0.008061 
0.000000 
0.008505 
0.008151 
0.000000 
0.000000 
0.006330 
0.004986 
0.004149 
0.004668 
0.005745 
0.006284 
0.006262 
0.000000 
0.000000 
0.005245 
0.004742 
0.000000 
0.004598 
0.004853 
0.005282 
0.000000 
0.004123 
0.003053 
0.002731 
0.002784 
0.002940 
0.004743 
0.006593 
0.000000 
0.005878 
0.003909 
0.001633 
0.000000 
0.003255 
0.000000 
0.000000 
0.009606 
0.000000 
0.006524 
0.005503 
0.005414 
0.006298 
0.000000 
0.000000 
0.007626 
0.006476 
0.000000 
0.005299 
0.004993 
0.004478 
0.004291 
0.004603 
0.000000 
0.004005 
0.002305 
0.000000 
0.001694 
0.002769 
0.003790 
0.005336 
0.000000 
0.006945 
0.006596 
0.006847 
0.000000 
0.000000 
0.007756 
0.006337 
0.005624 
0.005654 
0.000000 
0.000000 
0.005288 
0.004982 
0.004271 
0.003537 
0.002963 
0.006099 
0.006192 
0.006488 
0.000000 
0.006099 
0.004902 
0.004760 
0.006296 
0.000000 
0.000000 
0.000000 
0.008750 
0.006101 
0.004583 
0.004814 
0.005909 
0.006968 
0.007343 
0.006922 
0.006384 
0.006404 
0.000000 
0.008123 
0.000000 
0.007980 
0.007318 
0.000000 
0.006476 
0.000000 
0.003832 
0.002829 
0.004034 
0.000000 
0.000000 
0.006638 
0.006601 
0.006247 
0.005723 
0.005604 
0.005342 
0.004723 
0.004476 
0.004943 
0.005390 
0.004906 
0.004177 
0.003412 
0.002373 
0.000000 
0.003194 
0.005175 
0.006152 
0.006034 
0.000000 
0.002580 
0.000000 
0.002160 
0.004944 
0.000000 
0.007171 
0.006529 
0.005585 
0.000000 
0.005063 
0.005973 
0.000000 
0.008231 
0.007603 
0.006242 
0.005360 
0.005039 
0.000000 
0.004184 
0.003740 
0.004029 
0.004649 
0.004452 
0.003538 
0.002577 
0.002556 
0.002800 
0.003396 
0.004792 
0.006420 
0.007080 
0.007186 
0.007783 
0.008992 
0.000000 
0.000000 
0.006699 
0.006313 
0.006729 
0.006947 
0.006425 
0.005830 
0.000000 
0.004678 
0.003979 
0.003575 
0.005649 
0.005750 
0.006167 
0.006764 
0.000000 
0.005912 
0.006054 
0.007907 
0.010339 
0.000000 
0.011054 
0.000000 
0.006108 
0.004738 
0.000000 
0.005465 
0.006165 
0.006929 
0.000000 
0.000000 
0.007132 
0.007664 
0.008478 
0.000000 
0.007844 
0.006616 
0.005706 
0.004811 
0.003788 
0.002420 
0.000000 
0.003126 
0.005040 
0.000000 
0.006156 
0.000000 
0.006270 
0.006387 
0.000000 
0.006625 
0.005670 
0.005047 
0.005487 
0.000000 
0.006169 
0.000000 
0.005117 
0.003993 
0.002899 
0.003464 
0.000000 
0.005456 
0.000000 
0.005535 
0.003328 
0.000000 
0.000000 
0.002246 
0.003580 
0.004448 
0.000000 
0.004605 
0.004495 
0.004644 
0.005337 
0.006725 
0.000000 
0.000000 
0.006520 
0.005453 
0.005001 
0.004658 
0.004014 
0.003468 
0.003788 
0.004723 
0.000000 
0.004790 
0.000000 
0.003591 
0.003453 
0.003771 
0.004974 
0.000000 
0.000000 
0.000000 
0.008941 
0.000000 
0.009554 
0.008065 
0.006817 
0.000000 
0.000000 
0.000000 
0.006999 
0.006164 
0.000000 
0.005249 
0.005000 
0.004978 
0.000000 
0.006606 
0.006794 
0.007085 
0.000000 
0.006767 
0.007266 
0.000000 
0.000000 
0.000000 
0.000000 
0.008534 
0.006051 
0.004776 
0.004695 
0.000000 
0.005595 
0.000000 
0.007343 
0.007718 
0.008126 
0.008668 
0.000000 
0.009689 
0.008956 
0.007354 
0.005583 
0.004231 
0.003378 
0.002819 
0.002434 
0.003420 
0.004264 
0.004738 
0.004846 
0.005146 
0.000000 
0.006322 
0.000000 
0.000000 
0.000000 
0.005674 
0.005950 
0.000000 
0.006915 
0.007153 
0.000000 
0.005882 
0.004581 
0.003729 
0.003652 
0.004339 
0.005544 
0.000000 
0.004446 
0.002046 
0.000000 
0.000000 
0.000000 
0.001883 
0.003182 
0.003781 
0.004038 
0.000000 
0.004757 
0.005799 
0.006931 
0.000000 
0.006953 
0.005986 
0.000000 
0.004593 
0.000000 
0.003216 
0.003598 
0.000000 
0.005373 
0.005387 
0.004780 
0.004201 
0.000000 
0.004487 
0.005416 
0.006784 
0.007827 
0.008502 
0.000000 
0.010102 
0.000000 
0.007901 
0.006666 
0.007080 
0.008278 
0.008596 
0.007623 
0.006488 
0.005839 
0.005456 
0.000000 
0.000000 
0.007253 
0.000000 
0.000000 
0.007210 
0.006803 
0.000000 
0.007241 
0.000000 
0.010906 
0.011184 
0.010051 
0.000000 
0.006107 
0.004858 
0.004290 
0.004203 
0.004580 
0.005587 
0.000000 
0.007924 
0.000000 
0.000000 
0.010226 
0.000000 
0.000000 
0.000000 
0.006899 
0.005179 
0.004413 
0.004274 
0.004148 
0.000000 
0.004193 
0.004105 
0.003925 
0.003926 
0.004308 
0.005187 
0.006394 
0.006753 
0.005994 
0.005243 
0.000000 
0.006072 
0.006840 
0.000000 
0.007892 
0.000000 
0.000000 
0.003658 
0.002384 
0.002735 
0.004625 
0.000000 
0.005530 
0.003857 
0.002023 
0.000000 
0.000000 
0.000000 
0.002394 
0.003685 
0.004059 
0.004246 
0.004695 
0.005476 
0.006220 
0.006986 
0.000000 
0.006573 
0.005500 
0.004273 
0.003137 
0.002210 
0.003012 
0.004198 
0.005155 
0.000000 
0.004952 
0.004384 
0.004561 
0.005252 
0.006159 
0.007028 
0.000000 
0.008027 
0.009050 
0.000000 
0.000000 
0.008095 
0.006886 
0.007218 
0.000000 
0.000000 
0.000000 
0.007095 
0.006036 
0.005248 
0.005009 
0.005013 
0.006767 
0.007001 
0.007116 
0.000000 
0.005658 
0.005291 
0.006016 
0.008034 
0.000000 
0.000000 
0.009428 
0.008005 
0.006425 
0.000000 
0.004308 
0.003790 
0.003894 
0.004665 
0.005941 
0.007454 
0.000000 
0.009731 
0.010327 
0.011594 
0.000000 
0.000000 
0.008064 
0.000000 
0.005949 
0.000000 
0.005915 
0.005445 
0.005025 
0.004735 
0.004248 
0.003668 
0.003588 
0.004328 
0.005459 
0.000000 
0.005026 
0.004149 
0.004118 
0.004995 
0.006403 
0.007730 
0.008212 
0.007588 
0.005717 
0.003081 
0.000000 
0.000000 
0.003656 
0.005836 
0.000000 
0.005821 
0.004414 
0.002363 
0.000000 
0.000000 
0.002582 
0.000000 
0.004870 
0.005038 
0.005626 
0.000000 
0.006177 
0.006661 
0.000000 
0.007406 
0.006265 
0.004531 
0.002712 
0.000000 
0.002845 
0.004212 
0.005010 
0.000000 
0.005020 
0.004567 
0.004824 
0.000000 
0.000000 
0.000000 
0.007101 
0.007196 
0.000000 
0.009168 
0.009310 
0.000000 
0.007428 
0.007398 
0.008300 
0.000000 
0.007997 
0.000000 
0.000000 
0.005285 
0.004493 
0.003969 
0.006141 
0.006320 
0.000000 
0.005390 
0.004413 
0.004032 
0.004645 
0.006501 
0.000000 
0.009128 
0.000000 
0.000000 
0.006777 
0.005919 
0.004964 
0.004422 
0.004366 
0.004724 
0.005550 
0.006666 
0.000000 
0.000000 
0.009636 
0.000000 
0.000000 
0.010332 
0.008248 
0.006955 
0.006948 
0.000000 
0.007841 
0.007245 
0.006570 
0.000000 
0.000000 
0.004294 
0.003768 
0.004164 
0.000000 
0.004926 
0.004138 
0.003056 
0.002597 
0.003841 
0.000000 
0.000000 
0.000000 
0.000000 
0.005891 
0.003202 
0.000000 
0.001698 
0.003945 
0.005851 
0.000000 
0.007378 
0.000000 
0.004544 
0.001923 
0.000000 
0.002640 
0.000000 
0.005985 
0.006547 
0.007319 
0.000000 
0.006553 
0.006566 
0.007740 
0.000000 
0.000000 
0.005851 
0.004272 
0.003724 
0.005011 
0.005660 
0.005569 
0.005474 
0.005261 
0.004961 
0.004936 
0.005470 
0.006208 
0.006604 
0.006557 
0.006395 
0.007122 
0.000000 
0.009047 
0.008733 
0.000000 
0.007536 
0.000000 
0.007332 
0.006554 
0.006134 
0.006061 
0.005789 
0.004960 
0.004058 
0.005882 
0.000000 
0.005501 
0.004664 
0.004010 
0.003651 
0.003773 
0.004924 
0.000000 
0.007665 
0.007747 
0.007376 
0.006797 
0.000000 
0.005987 
0.005776 
0.000000 
0.005666 
0.000000 
0.005876 
0.006438 
0.007101 
0.008128 
0.000000 
0.000000 
0.009608 
0.000000 
0.007412 
0.007817 
0.009194 
0.000000 
0.009422 
0.000000 
0.006793 
0.005901 
0.004994 
0.004329 
0.004303 
0.004323 
0.003890 
0.000000 
0.001868 
0.000000 
0.002084 
0.004713 
0.006401 
0.007145 
0.007086 
0.000000 
0.003967 
0.002508 
0.003119 
0.000000 
0.005763 
0.006773 
0.000000 
0.000000 
0.000000 
0.002523 
0.000000 
0.001996 
0.004921 
0.000000 
0.008603 
0.000000 
0.009232 
0.007509 
0.007020 
0.008251 
0.000000 
0.008934 
0.000000 
0.006384 
0.006644 
0.000000 
0.000000 
0.006941 
0.006032 
0.000000 
0.000000 
0.005599 
0.005744 
0.006355 
0.006854 
0.000000 
0.006426 
0.006757 
0.007945 
0.000000 
0.000000 
0.007993 
0.007590 
0.007237 
0.006491 
0.005718 
0.005804 
0.006523 
0.000000 
0.000000 
0.004926 
0.006814 
0.006668 
0.006235 
0.005617 
0.005317 
0.000000 
0.003346 
0.003232 
0.005650 
0.007371 
0.007525 
0.000000 
0.006093 
0.000000 
0.006206 
0.000000 
0.006865 
0.007065 
0.006719 
0.005950 
0.005913 
0.006378 
0.007256 
0.008577 
0.009339 
0.009120 
0.008523 
0.008204 
0.008908 
0.000000 
0.000000 
0.000000 
0.009160 
0.007171 
0.006397 
0.000000 
0.005204 
0.000000 
0.004030 
0.002434 
0.001762 
0.000969 
0.000000 
0.000000 
0.004579 
0.005915 
0.006121 
0.000000 
0.005496 
0.004419 
0.003797 
0.004554 
0.005726 
0.006008 
0.006060 
0.006623 
0.006859 
0.005111 
0.001914 
0.000000 
0.000000 
0.005006 
0.009022 
0.011640 
0.000000 
0.000000 
0.009608 
0.008565 
0.000000 
0.011255 
0.011479 
0.010556 
0.009593 
0.009727 
0.000000 
0.000000 
0.008547 
0.006937 
0.006420 
0.006925 
0.007475 
0.007649 
0.000000 
0.008888 
0.000000 
0.008061 
0.008120 
0.008840 
0.000000 
0.008454 
0.007788 
0.000000 
0.007463 
0.000000 
0.006432 
0.007256 
0.008405 
0.000000 
0.007543 
0.005837 
0.012194 
0.011820 
0.011181 
0.010395 
0.010091 
0.006909 
0.003473 
0.000000 
0.007105 
0.010857 
0.000000 
0.006965 
0.004109 
0.003883 
0.005002 
0.000000 
0.008395 
0.010462 
0.000000 
0.008814 
0.008780 
0.000000 
0.009977 
0.010645 
0.000000 
0.000000 
0.000000 
0.000000 
0.000000 
0.012615 
0.015753 
0.000000 
0.011188 
0.008410 
0.000000 
0.007881 
0.007244 
0.007121 
0.005580 
0.000000 
0.000000 
0.000000 
0.000000 
0.006197 
0.008997 
0.000000 
0.006294 
0.005824 
0.005604 
0.000000 
0.005845 
0.008044 
0.009554 
0.000000 
0.006903 
0.007397 
0.008688 
0.006568 
0.000000 
0.000000 
0.000000 
0.007213 
0.000000 
0.017937 
0.000000 
0.000000 
0.014038 
0.012229 
0.000000 
0.016894 
0.000000 
0.018445 
0.017045 
0.015312 
0.000000 
0.013786 
0.000000 
0.010326 
0.009435 
0.011042 
0.000000 
0.012993 
0.014100 
0.015172 
0.015295 
0.013591 
0.013838 
0.013946 
0.012544 
0.010226 
0.008243 
0.000000 
0.000000 
0.007958 
0.009320 
0.000000 
0.014345 
0.013801 
0.011433 
0.008358 
0.000000 
0.027463 
0.000000 
0.023888 
0.000000 
0.014859 
0.007292 
0.007804 
0.017406 
0.000000 
0.019189 
0.010792 
0.000000 
0.000000 
0.003618 
0.007008 
0.012938 
0.000000 
0.021926 
0.019026 
0.020621 
0.021635 
0.023012 
0.022681 
0.018330 
0.015385 
0.012847 
0.012312 
0.014396 
0.019043 
0.000000 
0.000000 
0.018309 
0.014213 
0.015184 
0.016294 
0.015487 
0.017225 
0.016556 
0.012767 
0.012338 
0.014536 
0.016322 
0.020966 
0.000000 
0.015292 
0.009797 
0.009247 
0.009462 
0.009088 
0.011546 
0.018249 
0.000000 
0.016710 
0.011787 
0.013006 
0.000000 
0.016425 
0.008053 
0.000000 
0.005454 
0.014120 
0.000000 
0.000000 
0.037983 
0.000000 
0.026279 
0.022854 
0.025729 
0.000000 
0.000000 
0.000000 
0.000000 
0.029638 
0.000000 
0.025010 
0.024606 
0.023257 
0.020527 
0.024390 
0.000000 
0.027676 
0.000000 
0.034297 
0.000000 
0.029204 
0.000000 
0.000000 
0.026567 
0.020091 
0.012832 
0.010274 
0.010705 
0.013331 
0.019273 
0.028525 
0.000000 
0.030284 
0.000000 
0.015972 
0.031769 
0.000000 
0.027530 
0.026895 
0.000000 
0.016839 
0.009435 
0.013266 
0.025637 
0.000000 
0.024541 
0.017074 
0.007344 
0.000000 
0.000000 
0.000000 
0.008020 
0.018990 
0.000000 
0.028333 
0.000000 
0.038118 
0.000000 
0.000000 
0.027862 
0.020928 
0.014047 
0.012074 
0.014481 
0.016417 
0.021405 
0.021942 
0.018122 
0.020014 
0.023814 
0.000000 
0.024964 
0.000000 
0.000000 
0.027719 
0.028304 
0.000000 
0.032434 
0.000000 
0.027055 
0.016810 
0.012874 
0.016297 
0.017335 
0.013649 
0.015268 
0.000000 
0.023675 
0.020404 
0.015011 
0.013890 
0.019376 
0.000000 
0.015947 
0.012291 
0.010794 
0.012636 
0.020444 
0.028653 
0.000000 
0.000000 
0.027823 
0.000000 
0.027436 
0.028307 
0.029439 
0.032182 
0.000000 
0.028191 
0.029389 
0.029882 
0.000000 
0.000000 
0.032325 
0.000000 
0.034332 
0.032181 
0.034837 
0.000000 
0.000000 
0.031848 
0.031960 
0.032919 
0.000000 
0.000000 
0.016389 
0.010369 
0.012556 
0.020642 
0.031072 
0.000000 
0.044090 
0.000000 
0.025760 
0.017416 
0.030909 
0.031126 
0.027964 
0.030187 
0.029333 
0.017493 
0.011807 
0.019247 
0.000000 
0.037254 
0.029888 
0.000000 
0.014982 
0.008433 
0.007587 
0.004127 
0.000000 
0.013641 
0.024534 
0.030738 
0.000000 
0.000000 
0.046999 
0.000000 
0.037135 
0.000000 
0.019164 
0.015089 
0.000000 
0.017858 
0.021567 
0.022599 
0.021283 
0.000000 
0.000000 
0.027990 
0.027438 
0.027978 
0.031228 
0.000000 
0.000000 
0.041408 
0.000000 
0.034328 
0.000000 
0.017384 
0.017255 
0.000000 
0.000000 
0.019291 
0.016542 
0.021999 
0.024128 
0.000000 
0.023284 
0.017491 
0.019133 
0.022279 
0.019936 
0.000000 
0.018078 
0.013797 
0.015370 
0.019895 
0.024333 
0.023231 
0.019159 
0.021687 
0.000000 
0.025211 
0.022628 
0.023422 
0.023206 
0.023646 
0.000000 
0.033875 
0.039564 
0.000000 
0.037115 
0.033560 
0.000000 
0.000000 
0.032916 
0.000000 
0.035501 
0.031133 
0.000000 
0.033342 
0.035364 
0.031311 
0.018520 
0.012272 
0.017045 
0.000000 
0.000000 
0.000000 
0.000000 
0.039392 
0.027174 
0.022655 
0.040660 
0.000000 
0.037888 
0.000000 
0.000000 
0.023187 
0.015935 
0.023560 
0.000000 
0.000000 
0.031821 
0.000000 
0.016819 
0.011948 
0.000000 
0.007792 
0.005143 
0.013621 
0.000000 
0.029860 
0.036602 
0.000000 
0.046846 
0.000000 
0.041127 
0.000000 
0.020512 
0.014970 
0.016011 
0.018793 
0.000000 
0.000000 
0.022860 
0.022908 
0.024369 
0.027407 
0.000000 
0.029947 
0.030857 
0.033372 
0.034702 
0.000000 
0.000000 
0.029387 
0.020218 
0.013964 
0.015751 
0.023512 
0.000000 
0.019048 
0.016114 
0.000000 
0.024134 
0.031577 
0.000000 
0.025483 
0.024317 
0.000000 
0.019507 
0.020962 
0.000000 
0.019134 
0.020910 
0.024583 
0.025792 
0.020435 
0.014943 
0.015141 
0.020131 
0.000000 
0.022307 
0.000000 
0.018464 
0.021575 
0.033020 
0.000000 
0.042353 
0.000000 
0.000000 
0.029402 
0.029031 
0.026480 
0.027113 
0.033614 
0.035461 
0.037387 
0.041404 
0.042299 
0.000000 
0.000000 
0.026522 
0.017619 
0.019508 
0.024010 
0.027944 
0.035035 
0.000000 
0.000000 
0.032729 
0.000000 
0.000000 
0.000000 
0.042797 
0.000000 
0.000000 
0.027867 
0.021656 
0.026951 
0.033748 
0.000000 
0.025465 
0.019945 
0.011904 
0.007072 
0.007206 
0.004051 
0.000000 
0.012513 
0.022695 
0.000000 
0.030168 
0.039340 
0.000000 
0.042899 
0.000000 
0.031158 
0.020432 
0.017903 
0.017528 
0.018737 
0.024348 
0.028819 
0.025340 
0.024139 
0.024844 
0.029635 
0.000000 
0.034525 
0.000000 
0.000000 
0.027641 
0.030333 
0.032655 
0.026720 
0.019584 
0.016399 
0.018208 
0.020769 
0.021421 
0.015456 
0.012043 
0.015003 
0.020016 
0.000000 
0.000000 
0.029850 
0.000000 
0.020780 
0.014318 
0.016073 
0.021622 
0.023059 
0.000000 
0.000000 
0.000000 
0.031942 
0.021522 
0.014590 
0.014635 
0.018194 
0.019143 
0.016925 
0.015235 
0.023082 
0.000000 
0.042058 
0.000000 
0.035806 
0.028855 
0.025052 
0.000000 
0.024720 
0.029315 
0.000000 
0.000000 
0.000000 
0.000000 
0.000000 
0.052395 
0.000000 
0.037579 
0.027419 
0.000000 
0.022835 
0.018787 
0.021467 
0.030134 
0.034672 
0.034340 
0.036220 
0.041016 
0.039590 
0.038937 
0.000000 
0.040404 
0.032565 
0.032146 
0.000000 
0.033185 
0.027171 
0.021797 
0.019207 
0.011852 
0.000000 
0.000000 
0.000000 
0.008015 
0.017842 
0.023821 
0.022649 
0.023471 
0.000000 
0.000000 
0.034897 
0.000000 
0.029553 
0.024459 
0.000000 
0.029999 
0.028673 
0.030237 
0.000000 
0.037411 
0.000000 
0.033483 
0.000000 
0.031461 
0.000000 
0.028858 
0.025157 
0.022333 
0.027364 
0.000000 
0.000000 
0.028463 
0.027732 
0.000000 
0.029596 
0.027984 
0.020895 
0.013080 
0.011188 
0.012923 
0.020364 
0.026966 
0.028064 
0.025333 
0.016079 
0.010362 
0.013708 
0.000000 
0.022922 
0.027684 
0.036350 
0.000000 
0.000000 
0.000000 
0.021081 
0.017430 
0.018988 
0.000000 
0.015254 
0.015367 
0.026425 
0.000000 
0.043473 
0.000000 
0.030922 
0.027040 
0.025684 
0.025315 
0.025028 
0.000000 
0.036114 
0.041434 
0.000000 
0.000000 
0.000000 
0.057524 
0.000000 
0.000000 
0.037388 
0.028577 
0.000000 
0.016566 
0.019047 
0.029870 
0.000000 
0.000000 
0.000000 
0.000000 
0.000000 
0.035163 
0.000000 
0.039457 
0.000000 
0.000000 
0.000000 
0.000000 
0.027424 
0.028752 
0.000000 
0.023524 
0.011955 
0.008390 
0.011391 
0.017280 
0.000000 
0.000000 
0.021087 
0.015154 
0.018615 
0.021958 
0.022293 
0.025190 
0.000000 
0.027405 
0.037515 
0.000000 
0.000000 
0.038434 
0.000000 
0.000000 
0.042390 
0.000000 
0.027882 
0.020998 
0.021629 
0.024306 
0.024145 
0.022745 
0.000000 
0.026472 
0.028184 
0.000000 
0.000000 
0.037236 
0.000000 
0.000000 
0.000000 
0.020225 
0.014443 
0.011736 
0.016099 
0.025644 
0.000000 
0.000000 
0.015128 
0.009259 
0.012598 
0.020074 
0.025050 
0.026764 
0.030088 
0.000000 
0.038612 
0.032637 
0.030238 
0.029353 
0.026706 
0.020479 
0.015488 
0.019200 
0.031284 
0.000000 
0.000000 
0.036550 
0.030250 
0.000000 
0.000000 
0.031715 
0.028157 
0.027631 
0.000000 
0.030487 
0.041838 
0.000000 
0.000000 
0.000000 
0.056067 
0.000000 
0.000000 
0.027634 
0.017979 
0.014978 
0.022739 
0.000000 
0.035171 
0.030993 
0.028065 
0.021127 
0.021239 
0.024714 
0.000000 
0.036098 
0.034179 
0.029291 
0.026014 
0.023727 
0.026094 
0.000000 
0.042245 
0.000000 
0.021795 
0.014956 
0.000000 
0.020102 
0.025788 
0.000000 
0.017189 
0.008383 
0.010146 
0.014986 
0.018007 
0.018841 
0.021848 
0.027128 
0.000000 
0.000000 
0.000000 
0.036552 
0.041662 
0.000000 
0.041419 
0.000000 
0.020532 
0.012255 
0.016166 
0.000000 
0.000000 
0.024972 
0.020441 
0.017377 
0.019163 
0.025150 
0.032304 
0.036421 
0.041164 
0.000000 
0.034420 
0.023013 
0.000000 
0.013796 
0.016045 
0.000000 
0.028544 
0.021599 
0.012077 
0.010342 
0.016993 
0.026047 
0.000000 
0.000000 
0.025461 
0.029049 
0.000000 
0.036577 
0.000000 
0.000000 
0.000000 
0.028540 
0.022727 
0.028862 
0.000000 
0.035334 
0.031374 
0.000000 
0.028367 
0.031475 
0.034309 
0.000000 
0.000000 
0.024387 
0.022084 
0.021201 
0.028494 
0.000000 
0.050367 
0.052171 
0.000000 
0.047837 
0.000000 
0.023868 
0.013623 
0.015272 
0.028445 
0.000000 
0.038114 
0.030110 
0.023782 
0.007422 
0.008264 
0.012722 
0.025433 
0.000000 
0.000000 
0.022180 
0.015878 
0.016366 
0.023126 
0.000000 
0.000000 
0.000000 
0.025951 
0.015108 
0.015928 
0.018378 
0.020341 
0.021414 
0.011718 
0.000000 
0.009326 
0.019239 
0.000000 
0.022060 
0.023415 
0.026357 
0.032362 
0.000000 
0.032394 
0.027914 
0.000000 
0.041002 
0.000000 
0.024608 
0.011747 
0.000000 
0.007648 
0.017557 
0.024294 
0.000000 
0.018788 
0.016311 
0.018414 
0.022784 
0.000000 
0.000000 
0.000000 
0.035669 
0.000000 
0.019767 
0.015375 
0.012002 
0.012593 
0.019293 
0.000000 
0.017305 
0.010771 
0.012822 
0.000000 
0.031639 
0.000000 
0.028621 
0.019245 
0.021094 
0.029813 
0.037160 
0.000000 
0.000000 
0.000000 
0.037148 
0.033616 
0.000000 
0.000000 
0.028840 
0.021026 
0.023043 
0.027973 
0.000000 
0.029795 
0.000000 
0.027804 
0.022099 
0.022936 
0.021242 
0.021227 
0.030520 
0.000000 
0.000000 
0.000000 
0.038870 
0.000000 
0.017520 
0.009705 
0.015151 
0.000000 
0.000000 
0.000000 
0.000000 
0.032614 
0.000000 
0.000000 
0.000000 
0.018089 
0.031529 
0.031487 
0.020157 
0.015155 
0.017393 
0.020236 
0.030042 
0.040207 
0.000000 
0.026048 
0.014488 
0.014702 
0.000000 
0.019195 
0.000000 
0.010761 
0.005424 
0.012368 
0.000000 
0.030747 
0.028292 
0.000000 
0.000000 
0.024322 
0.023916 
0.020014 
0.018933 
0.027579 
0.000000 
0.027453 
0.016903 
0.008713 
0.000000 
0.000000 
0.012304 
0.021134 
0.023263 
0.021207 
0.022281 
0.000000 
0.021026 
0.023279 
0.024293 
0.025209 
0.025365 
0.021414 
0.016644 
0.015504 
0.014366 
0.011291 
0.012734 
0.015979 
0.014626 
0.009719 
0.010737 
0.019814 
0.000000 
0.033315 
0.026044 
0.017411 
0.020144 
0.000000 
0.035742 
0.000000 
0.054489 
0.000000 
0.041430 
0.000000 
0.037921 
0.000000 
0.023014 
0.015933 
0.020507 
0.000000 
0.027062 
0.021169 
0.022018 
0.023009 
0.024568 
0.000000 
0.000000 
0.019478 
0.021016 
0.029512 
0.033843 
0.000000 
0.023886 
0.015769 
0.007496 
0.000000 
0.007777 
0.020258 
0.032118 
0.038673 
0.039867 
0.000000 
0.010804 
0.009412 
0.010225 
0.021697 
0.000000 
0.000000 
0.025733 
0.022565 
0.000000 
0.025100 
0.030238 
0.039386 
0.000000 
0.027870 
0.016547 
0.013797 
0.014605 
0.013869 
0.011843 
0.005338 
0.000000 
0.010461 
0.024385 
0.000000 
0.032557 
0.028629 
0.023794 
0.019550 
0.020867 
0.019502 
0.017108 
0.022578 
0.000000 
0.022475 
0.017289 
0.014522 
0.008411 
0.007894 
0.016860 
0.000000 
0.031787 
0.030668 
0.000000 
0.025539 
0.021992 
0.021648 
0.018449 
0.019404 
0.000000 
0.021538 
0.022209 
0.024808 
0.000000 
0.015599 
0.012180 
0.013591 
0.000000 
0.009283 
0.006616 
0.011323 
0.021377 
0.000000 
0.000000 
0.017373 
0.018453 
0.000000 
0.029748 
0.038818 
0.000000 
0.000000 
0.039170 
0.000000 
0.030387 
0.024860 
0.019252 
0.014541 
0.018825 
0.000000 
0.024392 
0.016539 
0.016326 
0.000000 
0.023700 
0.000000 
0.024598 
0.015660 
0.015649 
0.000000 
0.021113 
0.017955 
0.009170 
0.000000 
0.000000 
0.000000 
0.000000 
0.013509 
0.026928 
0.000000 
0.000000 
0.032033 
0.000000 
0.020808 
0.018813 
0.024875 
0.000000 
0.000000 
0.027298 
0.027208 
0.000000 
0.030218 
0.000000 
0.000000 
0.000000 
0.034377 
0.026399 
0.020746 
0.016365 
0.014156 
0.008831 
0.000000 
0.000000 
0.009756 
0.022451 
0.000000 
0.000000 
0.033324 
0.026685 
0.022406 
0.000000 
0.000000 
0.021361 
0.022351 
0.024419 
0.022998 
0.025322 
0.000000 
0.016766 
0.014247 
0.023455 
0.035845 
0.000000 
0.000000 
0.035092 
0.030686 
0.031417 
0.000000 
0.021694 
0.019279 
0.024044 
0.024162 
0.000000 
0.000000 
0.031384 
0.020487 
0.014913 
0.011741 
0.010252 
0.004755 
0.000000 
0.000000 
0.009012 
0.016299 
0.016817 
0.011824 
0.012317 
0.018180 
0.021259 
0.000000 
0.032481 
0.033887 
0.031263 
0.000000 
0.023444 
0.020030 
0.000000 
0.016272 
0.016909 
0.021483 
0.000000 
0.013356 
0.010746 
0.012955 
0.015793 
0.021362 
0.019578 
0.012501 
0.011474 
0.015727 
0.015078 
0.010903 
0.000000 
0.000000 
0.000000 
0.000000 
0.000000 
0.012377 
0.000000 
0.029288 
0.028092 
0.021757 
0.028283 
0.000000 
0.028468 
0.027036 
0.027218 
0.025513 
0.021840 
0.000000 
0.027502 
0.028002 
0.029177 
0.034605 
0.000000 
0.041813 
0.000000 
0.000000 
0.023620 
0.000000 
0.012807 
0.008392 
0.010234 
0.013860 
0.021402 
0.029184 
0.034631 
0.000000 
0.000000 
0.023631 
0.024779 
0.027782 
0.024608 
0.000000 
0.029046 
0.029628 
0.000000 
0.000000 
0.018988 
0.017034 
0.000000 
0.000000 
0.000000 
0.036333 
0.000000 
0.039561 
0.000000 
0.000000 
0.026027 
0.022840 
0.000000 
0.023880 
0.027119 
0.035003 
0.000000 
0.025352 
0.000000 
0.012417 
0.007889 
0.000000 
0.000000 
0.000000 
0.000000 
0.009298 
0.012926 
0.010288 
0.010987 
0.014906 
0.014986 
0.018470 
0.022869 
0.000000 
0.025877 
0.025279 
0.018286 
0.017835 
0.022752 
0.020060 
0.019401 
0.016960 
0.013811 
0.009328 
0.008123 
0.008897 
0.012937 
0.020649 
0.000000 
0.014166 
0.013142 
0.019499 
0.022331 
0.018659 
0.012481 
0.011241 
0.007488 
0.000000 
0.000000 
0.011914 
0.022372 
0.024915 
0.000000 
0.017833 
0.024319 
0.029622 
0.000000 
0.000000 
0.024031 
0.019967 
0.016502 
0.018490 
0.023233 
0.000000 
0.027298 
0.027874 
0.035436 
0.000000 
0.000000 
0.033278 
0.023499 
0.021189 
0.015067 
0.013563 
0.000000 
0.020574 
0.000000 
0.027885 
0.031219 
0.000000 
0.029623 
0.022103 
0.024735 
0.000000 
0.027071 
0.028826 
0.000000 
0.000000 
0.025933 
0.019292 
0.010538 
0.009228 
0.014333 
0.018738 
0.020112 
0.021759 
0.030089 
0.000000 
0.000000 
0.034338 
0.026252 
0.024059 
0.000000 
0.020065 
0.021435 
0.000000 
0.000000 
0.021543 
0.015234 
0.011744 
0.010670 
0.005327 
0.000000 
0.000000 
0.005057 
0.010663 
0.000000 
0.013705 
0.015519 
0.000000 
0.014676 
0.014389 
0.018689 
0.022430 
0.024613 
0.000000 
0.019052 
0.022019 
0.000000 
0.030590 
0.000000 
0.021040 
0.012962 
0.010856 
0.012943 
0.012047 
0.015236 
0.000000 
0.021354 
0.014939 
0.016762 
0.000000 
0.000000 
0.000000 
0.024004 
0.000000 
0.019592 
0.012981 
0.011448 
0.016869 
0.000000 
0.024209 
0.020463 
0.016285 
0.020615 
0.027507 
0.000000 
0.030700 
0.021916 
0.000000 
0.016909 
0.016203 
0.020876 
0.000000 
0.032510 
0.031495 
0.034672 
0.040010 
0.000000 
0.030858 
0.025609 
0.000000 
0.019298 
0.015856 
0.017959 
0.020873 
0.023558 
0.000000 
0.026207 
0.000000 
0.025276 
0.023562 
0.028099 
0.000000 
0.028667 
0.028097 
0.028788 
0.023574 
0.016669 
0.009598 
0.000000 
0.000000 
0.000000 
0.000000 
0.000000 
0.008793 
0.020499 
0.000000 
0.032113 
0.027782 
0.000000 
0.023977 
0.019844 
0.013039 
0.012172 
0.017615 
0.019197 
0.013218 
0.010773 
0.013044 
0.000000 
0.011970 
0.007778 
0.007493 
0.010653 
0.012169 
0.014760 
0.015050 
0.019233 
0.020993 
0.015215 
0.014286 
0.000000 
0.020489 
0.000000 
0.021816 
0.019838 
0.026059 
0.000000 
0.037802 
0.000000 
0.027879 
0.017620 
0.017616 
0.000000 
0.019248 
0.018516 
0.024215 
0.022534 
0.015897 
0.015307 
0.024502 
0.000000 
0.028646 
0.025632 
0.029393 
0.000000 
0.025189 
0.023000 
0.023400 