# vtk DataFile Version 3.0
results.vtk
ASCII
DATASET RECTILINEAR_GRID
DIMENSIONS 100 100 1
X_COORDINATES 100 double
0.000000 0.010000 0.020000 0.030000 0.040000 0.050000 0.060000 0.070000 0.080000 0.090000 0.100000 0.110000 0.120000 0.130000 0.140000 0.150000 0.160000 0.170000 0.180000 0.190000 0.200000 0.210000 0.220000 0.230000 0.240000 0.250000 0.260000 0.270000 0.280000 0.290000 0.300000 0.310000 0.320000 0.330000 0.340000 0.350000 0.360000 0.370000 0.380000 0.390000 0.400000 0.410000 0.420000 0.430000 0.440000 0.450000 0.460000 0.470000 0.480000 0.490000 0.500000 0.510000 0.520000 0.530000 0.540000 0.550000 0.560000 0.570000 0.580000 0.590000 0.600000 0.610000 0.620000 0.630000 0.640000 0.650000 0.660000 0.670000 0.680000 0.690000 0.700000 0.710000 0.720000 0.730000 0.740000 0.750000 0.760000 0.770000 0.780000 0.790000 0.800000 0.810000 0.820000 0.830000 0.840000 0.850000 0.860000 0.870000 0.880000 0.890000 0.900000 0.910000 0.920000 0.930000 0.940000 0.950000 0.960000 0.970000 0.980000 0.990000 
Y_COORDINATES 100 double
0.000000 0.010000 0.020000 0.030000 0.040000 0.050000 0.060000 0.070000 0.080000 0.090000 0.100000 0.110000 0.120000 0.130000 0.140000 0.150000 0.160000 0.170000 0.180000 0.190000 0.200000 0.210000 0.220000 0.230000 0.240000 0.250000 0.260000 0.270000 0.280000 0.290000 0.300000 0.310000 0.320000 0.330000 0.340000 0.350000 0.360000 0.370000 0.380000 0.390000 0.400000 0.410000 0.420000 0.430000 0.440000 0.450000 0.460000 0.470000 0.480000 0.490000 0.500000 0.510000 0.520000 0.530000 0.540000 0.550000 0.560000 0.570000 0.580000 0.590000 0.600000 0.610000 0.620000 0.630000 0.640000 0.650000 0.660000 0.670000 0.680000 0.690000 0.700000 0.710000 0.720000 0.730000 0.740000 0.750000 0.760000 0.770000 0.780000 0.790000 0.800000 0.810000 0.820000 0.830000 0.840000 0.850000 0.860000 0.870000 0.880000 0.890000 0.900000 0.910000 0.920000 0.930000 0.940000 0.950000 0.960000 0.970000 0.980000 0.990000 
Z_COORDINATES 1 double
0
POINT_DATA 10000 
FIELD FieldData 1 
Concentração 1 10000 double 
0.007649 
0.000000 
0.006789 
0.006045 
0.000000 
0.005114 
0.004979 
0.004832 
0.000000 
0.004477 
0.004960 
0.005298 
0.000000 
0.004529 
0.000000 
0.000000 
0.000000 
0.005819 
0.000000 
0.000000 
0.005643 
0.000000 
0.000000 
0.005996 
0.005725 
0.000000 
0.004388 
0.003956 
0.003885 
0.003840 
0.004032 
0.004602 
0.004928 
0.004569 
0.003921 
0.003712 
0.003748 
0.000000 
0.002893 
0.002891 
0.000000 
0.004163 
0.004466 
0.003807 
0.002140 
0.000000 
0.001387 
0.002847 
0.000000 
0.000000 
0.000000 
0.005649 
0.000000 
0.001885 
0.000000 
0.000000 
0.000000 
0.003945 
0.006655 
0.000000 
0.007178 
0.000000 
0.005414 
0.004969 
0.004623 
0.004299 
0.004305 
0.004453 
0.004239 
0.003772 
0.003107 
0.002546 
0.002219 
0.002214 
0.002402 
0.002539 
0.000000 
0.001180 
0.000000 
0.000000 
0.001677 
0.002980 
0.004284 
0.005351 
0.005894 
0.000000 
0.004856 
0.000000 
0.004027 
0.004272 
0.000000 
0.000000 
0.003499 
0.002688 
0.002560 
0.003041 
0.000000 
0.002989 
0.001891 
0.000000 
0.007307 
0.000000 
0.000000 
0.005752 
0.000000 
0.004716 
0.000000 
0.000000 
0.004399 
0.004570 
0.005142 
0.000000 
0.004802 
0.004301 
0.004707 
0.005628 
0.006120 
0.005806 
0.005201 
0.004993 
0.005331 
0.000000 
0.005953 
0.005953 
0.000000 
0.005254 
0.004593 
0.004178 
0.000000 
0.003877 
0.003940 
0.000000 
0.000000 
0.000000 
0.003918 
0.003751 
0.000000 
0.003325 
0.002843 
0.002854 
0.003381 
0.004055 
0.000000 
0.000000 
0.002189 
0.000000 
0.001420 
0.002704 
0.004038 
0.005374 
0.000000 
0.005486 
0.003828 
0.001890 
0.000000 
0.000000 
0.001634 
0.004405 
0.000000 
0.000000 
0.006949 
0.000000 
0.005107 
0.000000 
0.000000 
0.004443 
0.004532 
0.000000 
0.004350 
0.000000 
0.003279 
0.002790 
0.002490 
0.002480 
0.002641 
0.002711 
0.002214 
0.001189 
0.000000 
0.000758 
0.001902 
0.003047 
0.000000 
0.005268 
0.000000 
0.000000 
0.004687 
0.004253 
0.004172 
0.004315 
0.004428 
0.000000 
0.003419 
0.002791 
0.002684 
0.003043 
0.000000 
0.002980 
0.002192 
0.001347 
0.000000 
0.006200 
0.005709 
0.005098 
0.004419 
0.003813 
0.003653 
0.003857 
0.004266 
0.004914 
0.000000 
0.000000 
0.004583 
0.003867 
0.004237 
0.000000 
0.000000 
0.000000 
0.005016 
0.004565 
0.000000 
0.005195 
0.005594 
0.000000 
0.005767 
0.000000 
0.005017 
0.004609 
0.004212 
0.000000 
0.003506 
0.003786 
0.004164 
0.004158 
0.003921 
0.003883 
0.003775 
0.003303 
0.002892 
0.002896 
0.003231 
0.000000 
0.003966 
0.003581 
0.002507 
0.001502 
0.001736 
0.000000 
0.003220 
0.004396 
0.000000 
0.000000 
0.003792 
0.002036 
0.000000 
0.000000 
0.002159 
0.004688 
0.000000 
0.000000 
0.006287 
0.005157 
0.004367 
0.004158 
0.004355 
0.004699 
0.004948 
0.000000 
0.004421 
0.003950 
0.003508 
0.000000 
0.002921 
0.000000 
0.003034 
0.000000 
0.002406 
0.001283 
0.000000 
0.001020 
0.000000 
0.002942 
0.004026 
0.000000 
0.005086 
0.004781 
0.004478 
0.004570 
0.004728 
0.000000 
0.004223 
0.003822 
0.003423 
0.003191 
0.003105 
0.003163 
0.003214 
0.002885 
0.000000 
0.001885 
0.005198 
0.000000 
0.004955 
0.000000 
0.003986 
0.003264 
0.003115 
0.003683 
0.004676 
0.005659 
0.006130 
0.000000 
0.004312 
0.003435 
0.003683 
0.004653 
0.000000 
0.000000 
0.004756 
0.004253 
0.004314 
0.004780 
0.005356 
0.000000 
0.005605 
0.005353 
0.000000 
0.000000 
0.004092 
0.003307 
0.002842 
0.003169 
0.003801 
0.004137 
0.004149 
0.000000 
0.000000 
0.003518 
0.003208 
0.000000 
0.003109 
0.003270 
0.003501 
0.000000 
0.002769 
0.002110 
0.001889 
0.001894 
0.001999 
0.003175 
0.004271 
0.000000 
0.003823 
0.002562 
0.001074 
0.000000 
0.002089 
0.000000 
0.000000 
0.006140 
0.000000 
0.004397 
0.003769 
0.003706 
0.004201 
0.000000 
0.000000 
0.004983 
0.004322 
0.000000 
0.003503 
0.003265 
0.002965 
0.002849 
0.003005 
0.000000 
0.002593 
0.001542 
0.000000 
0.001134 
0.001864 
0.002581 
0.003549 
0.000000 
0.004634 
0.004516 
0.004665 
0.000000 
0.000000 
0.005059 
0.004285 
0.003852 
0.003806 
0.000000 
0.000000 
0.003509 
0.003299 
0.002870 
0.002403 
0.002056 
0.004172 
0.004220 
0.004356 
0.000000 
0.004038 
0.003409 
0.003382 
0.004299 
0.000000 
0.000000 
0.000000 
0.005712 
0.004165 
0.003233 
0.003321 
0.003972 
0.004612 
0.004845 
0.004622 
0.004332 
0.004364 
0.000000 
0.005372 
0.000000 
0.005320 
0.004895 
0.000000 
0.004185 
0.000000 
0.002559 
0.001934 
0.002688 
0.000000 
0.000000 
0.004314 
0.004295 
0.004109 
0.003835 
0.003730 
0.003559 
0.003231 
0.003107 
0.003347 
0.003548 
0.003267 
0.002812 
0.002325 
0.001632 
0.000000 
0.002163 
0.003401 
0.003990 
0.003885 
0.000000 
0.001660 
0.000000 
0.001386 
0.003125 
0.000000 
0.004630 
0.004288 
0.003734 
0.000000 
0.003430 
0.003983 
0.000000 
0.005292 
0.004977 
0.004214 
0.003641 
0.003368 
0.000000 
0.002799 
0.002562 
0.002721 
0.003032 
0.002901 
0.002335 
0.001699 
0.001731 
0.001942 
0.002386 
0.003257 
0.004225 
0.004692 
0.004844 
0.005222 
0.005860 
0.000000 
0.000000 
0.004515 
0.004255 
0.004443 
0.004531 
0.004234 
0.003864 
0.000000 
0.003122 
0.002710 
0.002470 
0.003882 
0.003950 
0.004180 
0.004451 
0.000000 
0.003986 
0.004151 
0.005259 
0.006685 
0.000000 
0.007108 
0.000000 
0.004157 
0.003268 
0.000000 
0.003636 
0.004105 
0.004556 
0.000000 
0.000000 
0.004797 
0.005143 
0.005617 
0.000000 
0.005278 
0.004533 
0.003895 
0.003274 
0.002581 
0.001671 
0.000000 
0.002068 
0.003250 
0.000000 
0.004002 
0.000000 
0.004102 
0.004191 
0.000000 
0.004281 
0.003770 
0.003437 
0.003651 
0.000000 
0.004015 
0.000000 
0.003358 
0.002667 
0.001956 
0.002336 
0.000000 
0.003543 
0.000000 
0.003489 
0.002131 
0.000000 
0.000000 
0.001441 
0.002299 
0.002906 
0.000000 
0.003071 
0.003014 
0.003135 
0.003600 
0.004414 
0.000000 
0.000000 
0.004341 
0.003701 
0.003351 
0.003070 
0.002670 
0.002373 
0.002565 
0.003071 
0.000000 
0.003086 
0.000000 
0.002379 
0.002338 
0.002607 
0.003364 
0.000000 
0.000000 
0.000000 
0.005871 
0.000000 
0.006202 
0.005358 
0.004620 
0.000000 
0.000000 
0.000000 
0.004640 
0.004119 
0.000000 
0.003472 
0.003296 
0.003257 
0.000000 
0.004384 
0.004508 
0.004648 
0.000000 
0.004467 
0.004832 
0.000000 
0.000000 
0.000000 
0.000000 
0.005627 
0.004123 
0.003277 
0.003138 
0.000000 
0.003706 
0.000000 
0.004779 
0.005081 
0.005385 
0.005749 
0.000000 
0.006359 
0.005929 
0.004959 
0.003862 
0.002983 
0.002394 
0.001978 
0.001671 
0.002300 
0.002853 
0.003164 
0.003258 
0.003418 
0.000000 
0.004118 
0.000000 
0.000000 
0.000000 
0.003759 
0.003891 
0.000000 
0.004497 
0.004621 
0.000000 
0.003814 
0.003011 
0.002507 
0.002449 
0.002870 
0.003558 
0.000000 
0.002852 
0.001358 
0.000000 
0.000000 
0.000000 
0.001253 
0.002116 
0.002537 
0.002721 
0.000000 
0.003250 
0.003900 
0.004553 
0.000000 
0.004554 
0.003990 
0.000000 
0.003020 
0.000000 
0.002157 
0.002410 
0.000000 
0.003456 
0.003469 
0.003124 
0.002793 
0.000000 
0.003031 
0.003648 
0.004476 
0.005126 
0.005587 
0.000000 
0.006536 
0.000000 
0.005303 
0.004590 
0.004765 
0.005393 
0.005568 
0.005036 
0.004356 
0.003903 
0.003625 
0.000000 
0.000000 
0.004726 
0.000000 
0.000000 
0.004689 
0.004449 
0.000000 
0.004801 
0.000000 
0.007034 
0.007260 
0.006594 
0.000000 
0.004140 
0.003314 
0.002927 
0.002869 
0.003121 
0.003728 
0.000000 
0.005189 
0.000000 
0.000000 
0.006718 
0.000000 
0.000000 
0.000000 
0.004617 
0.003546 
0.003027 
0.002875 
0.002775 
0.000000 
0.002855 
0.002822 
0.002725 
0.002722 
0.002951 
0.003484 
0.004155 
0.004345 
0.003924 
0.003493 
0.000000 
0.003985 
0.004496 
0.000000 
0.005078 
0.000000 
0.000000 
0.002433 
0.001621 
0.001841 
0.003003 
0.000000 
0.003541 
0.002542 
0.001348 
0.000000 
0.000000 
0.000000 
0.001572 
0.002429 
0.002742 
0.002914 
0.003229 
0.003715 
0.004178 
0.004598 
0.000000 
0.004337 
0.003675 
0.002889 
0.002125 
0.001511 
0.002065 
0.002802 
0.003368 
0.000000 
0.003269 
0.002966 
0.003057 
0.003475 
0.004053 
0.004610 
0.000000 
0.005329 
0.005929 
0.000000 
0.000000 
0.005402 
0.004723 
0.004873 
0.000000 
0.000000 
0.000000 
0.004664 
0.004020 
0.003543 
0.003348 
0.003309 
0.004502 
0.004596 
0.004607 
0.000000 
0.003785 
0.003605 
0.004083 
0.005275 
0.000000 
0.000000 
0.006186 
0.005291 
0.004299 
0.000000 
0.002956 
0.002661 
0.002743 
0.003223 
0.003998 
0.004911 
0.000000 
0.006347 
0.006814 
0.007511 
0.000000 
0.000000 
0.005326 
0.000000 
0.003961 
0.000000 
0.003912 
0.003662 
0.003402 
0.003184 
0.002876 
0.002555 
0.002530 
0.002960 
0.003577 
0.000000 
0.003322 
0.002818 
0.002787 
0.003344 
0.004218 
0.005015 
0.005299 
0.004882 
0.003714 
0.002057 
0.000000 
0.000000 
0.002395 
0.003742 
0.000000 
0.003748 
0.002840 
0.001514 
0.000000 
0.000000 
0.001630 
0.000000 
0.003225 
0.003435 
0.003794 
0.000000 
0.004173 
0.004463 
0.000000 
0.004828 
0.004148 
0.003087 
0.001893 
0.000000 
0.001958 
0.002863 
0.003345 
0.000000 
0.003337 
0.003105 
0.003243 
0.000000 
0.000000 
0.000000 
0.004708 
0.004842 
0.000000 
0.005989 
0.006078 
0.000000 
0.005004 
0.004975 
0.005420 
0.000000 
0.005185 
0.000000 
0.000000 
0.003556 
0.003086 
0.002775 
0.004131 
0.004190 
0.000000 
0.003604 
0.003055 
0.002841 
0.003231 
0.004317 
0.000000 
0.005935 
0.000000 
0.000000 
0.004480 
0.003909 
0.003355 
0.003037 
0.003009 
0.003253 
0.003761 
0.004439 
0.000000 
0.000000 
0.006368 
0.000000 
0.000000 
0.006731 
0.005513 
0.004715 
0.004662 
0.000000 
0.005152 
0.004820 
0.004359 
0.000000 
0.000000 
0.002899 
0.002613 
0.002817 
0.000000 
0.003176 
0.002705 
0.002068 
0.001774 
0.002560 
0.000000 
0.000000 
0.000000 
0.000000 
0.003805 
0.002127 
0.000000 
0.001150 
0.002611 
0.003805 
0.000000 
0.004667 
0.000000 
0.002841 
0.001214 
0.000000 
0.001655 
0.000000 
0.003927 
0.004400 
0.004852 
0.000000 
0.004474 
0.004501 
0.005112 
0.000000 
0.000000 
0.003936 
0.002976 
0.002560 
0.003339 
0.003771 
0.003757 
0.003663 
0.003510 
0.003350 
0.003372 
0.003694 
0.004141 
0.004408 
0.004422 
0.004393 
0.004827 
0.000000 
0.005914 
0.005716 
0.000000 
0.005028 
0.000000 
0.004861 
0.004425 
0.004152 
0.004058 
0.003849 
0.003351 
0.002841 
0.004025 
0.000000 
0.003757 
0.003271 
0.002850 
0.002577 
0.002639 
0.003318 
0.000000 
0.005112 
0.005164 
0.004873 
0.004459 
0.000000 
0.003918 
0.003797 
0.000000 
0.003817 
0.000000 
0.004024 
0.004383 
0.004837 
0.005505 
0.000000 
0.000000 
0.006346 
0.000000 
0.005052 
0.005285 
0.006052 
0.000000 
0.006182 
0.000000 
0.004507 
0.003909 
0.003355 
0.002960 
0.002901 
0.002853 
0.002513 
0.000000 
0.001213 
0.000000 
0.001398 
0.003131 
0.004213 
0.004661 
0.004566 
0.000000 
0.002644 
0.001743 
0.002152 
0.000000 
0.003835 
0.004433 
0.000000 
0.000000 
0.000000 
0.001595 
0.000000 
0.001283 
0.003211 
0.000000 
0.005758 
0.000000 
0.006132 
0.005197 
0.004911 
0.005561 
0.000000 
0.005960 
0.000000 
0.004471 
0.004530 
0.000000 
0.000000 
0.004651 
0.004100 
0.000000 
0.000000 
0.003860 
0.004007 
0.004381 
0.004683 
0.000000 
0.004497 
0.004723 
0.005373 
0.000000 
0.000000 
0.005303 
0.005044 
0.004819 
0.004404 
0.004010 
0.004072 
0.004437 
0.000000 
0.000000 
0.003393 
0.004938 
0.004834 
0.004539 
0.004133 
0.003819 
0.000000 
0.002373 
0.002238 
0.003931 
0.005106 
0.005158 
0.000000 
0.003993 
0.000000 
0.004011 
0.000000 
0.004594 
0.004837 
0.004692 
0.004299 
0.004313 
0.004633 
0.005213 
0.005965 
0.006336 
0.006154 
0.005749 
0.005571 
0.006040 
0.000000 
0.000000 
0.000000 
0.006224 
0.004963 
0.004393 
0.000000 
0.003619 
0.000000 
0.002789 
0.001609 
0.001125 
0.000620 
0.000000 
0.000000 
0.003171 
0.004063 
0.004161 
0.000000 
0.003669 
0.003031 
0.002730 
0.003264 
0.003985 
0.004181 
0.004220 
0.004525 
0.004590 
0.003424 
0.001264 
0.000000 
0.000000 
0.003432 
0.006147 
0.007934 
0.000000 
0.000000 
0.006769 
0.006115 
0.000000 
0.007729 
0.007966 
0.007478 
0.006882 
0.006810 
0.000000 
0.000000 
0.005900 
0.004962 
0.004610 
0.004907 
0.005290 
0.005474 
0.000000 
0.006289 
0.000000 
0.005834 
0.005880 
0.006243 
0.000000 
0.005817 
0.005302 
0.000000 
0.004954 
0.000000 
0.004605 
0.005213 
0.005911 
0.000000 
0.005222 
0.004200 
0.009136 
0.008888 
0.008391 
0.007836 
0.007390 
0.005130 
0.002688 
0.000000 
0.005276 
0.007828 
0.000000 
0.005005 
0.002777 
0.002542 
0.003347 
0.000000 
0.005906 
0.007435 
0.000000 
0.006762 
0.006815 
0.000000 
0.007683 
0.008008 
0.000000 
0.000000 
0.000000 
0.000000 
0.000000 
0.008922 
0.010922 
0.000000 
0.008095 
0.006291 
0.000000 
0.005856 
0.005507 
0.005395 
0.004258 
0.000000 
0.000000 
0.000000 
0.000000 
0.004651 
0.006513 
0.000000 
0.004651 
0.004287 
0.004115 
0.000000 
0.004430 
0.005957 
0.006898 
0.000000 
0.005201 
0.005483 
0.006228 
0.004757 
0.000000 
0.000000 
0.000000 
0.005216 
0.000000 
0.012738 
0.000000 
0.000000 
0.010396 
0.009180 
0.000000 
0.012132 
0.000000 
0.013373 
0.012476 
0.011245 
0.000000 
0.009980 
0.000000 
0.007922 
0.007347 
0.008318 
0.000000 
0.009700 
0.010481 
0.011290 
0.011318 
0.010251 
0.010303 
0.010288 
0.009316 
0.007645 
0.006069 
0.000000 
0.000000 
0.005870 
0.007092 
0.000000 
0.010600 
0.010152 
0.008414 
0.006383 
0.000000 
0.020887 
0.000000 
0.018318 
0.000000 
0.011467 
0.006150 
0.006570 
0.013470 
0.000000 
0.014711 
0.008493 
0.000000 
0.000000 
0.002683 
0.005202 
0.009706 
0.000000 
0.016594 
0.015200 
0.016398 
0.017319 
0.018256 
0.017836 
0.014625 
0.012166 
0.010116 
0.009663 
0.011240 
0.014629 
0.000000 
0.000000 
0.014253 
0.011501 
0.012061 
0.012784 
0.012424 
0.013484 
0.012982 
0.010396 
0.010108 
0.011601 
0.013012 
0.016080 
0.000000 
0.011797 
0.008000 
0.007558 
0.007670 
0.007395 
0.009235 
0.013804 
0.000000 
0.012866 
0.009563 
0.010219 
0.000000 
0.012273 
0.006341 
0.000000 
0.004484 
0.010858 
0.000000 
0.000000 
0.028352 
0.000000 
0.020440 
0.017968 
0.019876 
0.000000 
0.000000 
0.000000 
0.000000 
0.022719 
0.000000 
0.019514 
0.019242 
0.018366 
0.016611 
0.018959 
0.000000 
0.021431 
0.000000 
0.026104 
0.000000 
0.022628 
0.000000 
0.000000 
0.020368 
0.015689 
0.010331 
0.008158 
0.008526 
0.010828 
0.015492 
0.022033 
0.000000 
0.023069 
0.000000 
0.012708 
0.024767 
0.000000 
0.021835 
0.021325 
0.000000 
0.013442 
0.008171 
0.011031 
0.019862 
0.000000 
0.019345 
0.013467 
0.005948 
0.000000 
0.000000 
0.000000 
0.006292 
0.014528 
0.000000 
0.022229 
0.000000 
0.029532 
0.000000 
0.000000 
0.022153 
0.016755 
0.011628 
0.010002 
0.011597 
0.013372 
0.016944 
0.017378 
0.014839 
0.015928 
0.018459 
0.000000 
0.019504 
0.000000 
0.000000 
0.021572 
0.022127 
0.000000 
0.025045 
0.000000 
0.020705 
0.013579 
0.010687 
0.012865 
0.013568 
0.011156 
0.012253 
0.000000 
0.018284 
0.016133 
0.012414 
0.011533 
0.015031 
0.000000 
0.012461 
0.009593 
0.008837 
0.010494 
0.016227 
0.022345 
0.000000 
0.000000 
0.021755 
0.000000 
0.021444 
0.022379 
0.023347 
0.025092 
0.000000 
0.022402 
0.023184 
0.023829 
0.000000 
0.000000 
0.025443 
0.000000 
0.026585 
0.025454 
0.027348 
0.000000 
0.000000 
0.025418 
0.025261 
0.025856 
0.000000 
0.000000 
0.013244 
0.008823 
0.010444 
0.016446 
0.024273 
0.000000 
0.033828 
0.000000 
0.020501 
0.014499 
0.025045 
0.024972 
0.022970 
0.024226 
0.023008 
0.014504 
0.010270 
0.015549 
0.000000 
0.028605 
0.023527 
0.000000 
0.011716 
0.006683 
0.005661 
0.003173 
0.000000 
0.010903 
0.019189 
0.024300 
0.000000 
0.000000 
0.036546 
0.000000 
0.029096 
0.000000 
0.015345 
0.012147 
0.000000 
0.014286 
0.017120 
0.017977 
0.017082 
0.000000 
0.000000 
0.021929 
0.021829 
0.022361 
0.024571 
0.000000 
0.000000 
0.031744 
0.000000 
0.026574 
0.000000 
0.014063 
0.013802 
0.000000 
0.000000 
0.015240 
0.013445 
0.017147 
0.019029 
0.000000 
0.018335 
0.014527 
0.015510 
0.017319 
0.015638 
0.000000 
0.014017 
0.011513 
0.012975 
0.016521 
0.019668 
0.018772 
0.015806 
0.017151 
0.000000 
0.019873 
0.018445 
0.018848 
0.018678 
0.019226 
0.000000 
0.026941 
0.031054 
0.000000 
0.029144 
0.026508 
0.000000 
0.000000 
0.026107 
0.000000 
0.028204 
0.025410 
0.000000 
0.026947 
0.027988 
0.024611 
0.015393 
0.010607 
0.013755 
0.000000 
0.000000 
0.000000 
0.000000 
0.030779 
0.022155 
0.018506 
0.031880 
0.000000 
0.030097 
0.000000 
0.000000 
0.018809 
0.013620 
0.018951 
0.000000 
0.000000 
0.024821 
0.000000 
0.013187 
0.009240 
0.000000 
0.005816 
0.004101 
0.010841 
0.000000 
0.023548 
0.028854 
0.000000 
0.036670 
0.000000 
0.032027 
0.000000 
0.016581 
0.012428 
0.012965 
0.015067 
0.000000 
0.000000 
0.018425 
0.018458 
0.019647 
0.021886 
0.000000 
0.023951 
0.024661 
0.026305 
0.027364 
0.000000 
0.000000 
0.023384 
0.016519 
0.011903 
0.013054 
0.018285 
0.000000 
0.015149 
0.012998 
0.000000 
0.019040 
0.024186 
0.000000 
0.020255 
0.019109 
0.000000 
0.015460 
0.016246 
0.000000 
0.015348 
0.016849 
0.019762 
0.020761 
0.017007 
0.012840 
0.012638 
0.015841 
0.000000 
0.017487 
0.000000 
0.015082 
0.017762 
0.025895 
0.000000 
0.033096 
0.000000 
0.000000 
0.023602 
0.023016 
0.021433 
0.022242 
0.026836 
0.028593 
0.030249 
0.033109 
0.033821 
0.000000 
0.000000 
0.021482 
0.014872 
0.015803 
0.019106 
0.022328 
0.027574 
0.000000 
0.000000 
0.026038 
0.000000 
0.000000 
0.000000 
0.033805 
0.000000 
0.000000 
0.022586 
0.018105 
0.021713 
0.026431 
0.000000 
0.020451 
0.015992 
0.009886 
0.005743 
0.005369 
0.003109 
0.000000 
0.010116 
0.017762 
0.000000 
0.024158 
0.030715 
0.000000 
0.033512 
0.000000 
0.024548 
0.016889 
0.014758 
0.014621 
0.015678 
0.019619 
0.022767 
0.020721 
0.019799 
0.020354 
0.023479 
0.000000 
0.026780 
0.000000 
0.000000 
0.022353 
0.024279 
0.025689 
0.021490 
0.016293 
0.013815 
0.014986 
0.016979 
0.017253 
0.012921 
0.010237 
0.012137 
0.015957 
0.000000 
0.000000 
0.023314 
0.000000 
0.016326 
0.011884 
0.013071 
0.016852 
0.018287 
0.000000 
0.000000 
0.000000 
0.025014 
0.017436 
0.012407 
0.012298 
0.014600 
0.015149 
0.013602 
0.012843 
0.018768 
0.000000 
0.032822 
0.000000 
0.028406 
0.023332 
0.020398 
0.000000 
0.020029 
0.023371 
0.000000 
0.000000 
0.000000 
0.000000 
0.000000 
0.041282 
0.000000 
0.029797 
0.022164 
0.000000 
0.018048 
0.015685 
0.018003 
0.024237 
0.027512 
0.027399 
0.028494 
0.032299 
0.031392 
0.031204 
0.000000 
0.031885 
0.026210 
0.025441 
0.000000 
0.026072 
0.021924 
0.018025 
0.015610 
0.009800 
0.000000 
0.000000 
0.000000 
0.006501 
0.014079 
0.018694 
0.018175 
0.018941 
0.000000 
0.000000 
0.027412 
0.000000 
0.023283 
0.019796 
0.000000 
0.023711 
0.023104 
0.024365 
0.000000 
0.029268 
0.000000 
0.026216 
0.000000 
0.024452 
0.000000 
0.022730 
0.020265 
0.018460 
0.021696 
0.000000 
0.000000 
0.022323 
0.021829 
0.000000 
0.023413 
0.022190 
0.016868 
0.011085 
0.009516 
0.010931 
0.016391 
0.021333 
0.022180 
0.019810 
0.013141 
0.008940 
0.011177 
0.000000 
0.018407 
0.022157 
0.028413 
0.000000 
0.000000 
0.000000 
0.017248 
0.014658 
0.015386 
0.000000 
0.012479 
0.013055 
0.021209 
0.000000 
0.033747 
0.000000 
0.024998 
0.021947 
0.020784 
0.020437 
0.020282 
0.000000 
0.028234 
0.032716 
0.000000 
0.000000 
0.000000 
0.045410 
0.000000 
0.000000 
0.029426 
0.022507 
0.000000 
0.013699 
0.015945 
0.023695 
0.000000 
0.000000 
0.000000 
0.000000 
0.000000 
0.027821 
0.000000 
0.031100 
0.000000 
0.000000 
0.000000 
0.000000 
0.022030 
0.022800 
0.000000 
0.018410 
0.009786 
0.006911 
0.008865 
0.013479 
0.000000 
0.000000 
0.016720 
0.012640 
0.015047 
0.017675 
0.018258 
0.020039 
0.000000 
0.022007 
0.029103 
0.000000 
0.000000 
0.030412 
0.000000 
0.000000 
0.032930 
0.000000 
0.022009 
0.017132 
0.017427 
0.019330 
0.019302 
0.018320 
0.000000 
0.020772 
0.022067 
0.000000 
0.000000 
0.028973 
0.000000 
0.000000 
0.000000 
0.016134 
0.011660 
0.009919 
0.013286 
0.020045 
0.000000 
0.000000 
0.012199 
0.008042 
0.010555 
0.016124 
0.019998 
0.021555 
0.024162 
0.000000 
0.030069 
0.026137 
0.024382 
0.023624 
0.021433 
0.016718 
0.013228 
0.016043 
0.024660 
0.000000 
0.000000 
0.028607 
0.024306 
0.000000 
0.000000 
0.024864 
0.022462 
0.021943 
0.000000 
0.024803 
0.033257 
0.000000 
0.000000 
0.000000 
0.043911 
0.000000 
0.000000 
0.022013 
0.014659 
0.012625 
0.018356 
0.000000 
0.027776 
0.024965 
0.022812 
0.016840 
0.017054 
0.019818 
0.000000 
0.028382 
0.026965 
0.023393 
0.020830 
0.019201 
0.021027 
0.000000 
0.032263 
0.000000 
0.017379 
0.012020 
0.000000 
0.015777 
0.019893 
0.000000 
0.013609 
0.007179 
0.008687 
0.012420 
0.014759 
0.015605 
0.017798 
0.021856 
0.000000 
0.000000 
0.000000 
0.029248 
0.032655 
0.000000 
0.032196 
0.000000 
0.016439 
0.010204 
0.012891 
0.000000 
0.000000 
0.019486 
0.016446 
0.014517 
0.015896 
0.020209 
0.025434 
0.028767 
0.032017 
0.000000 
0.026559 
0.018203 
0.000000 
0.011102 
0.012893 
0.000000 
0.021725 
0.016937 
0.010126 
0.008789 
0.013657 
0.020459 
0.000000 
0.000000 
0.020597 
0.023152 
0.000000 
0.029107 
0.000000 
0.000000 
0.000000 
0.023145 
0.018911 
0.022938 
0.000000 
0.027735 
0.024919 
0.000000 
0.022786 
0.024812 
0.026747 
0.000000 
0.000000 
0.019653 
0.018048 
0.017838 
0.023343 
0.000000 
0.039564 
0.041145 
0.000000 
0.037364 
0.000000 
0.019095 
0.011525 
0.012747 
0.022216 
0.000000 
0.029951 
0.024462 
0.019983 
0.006353 
0.007054 
0.010500 
0.019979 
0.000000 
0.000000 
0.018119 
0.013555 
0.013855 
0.018785 
0.000000 
0.000000 
0.000000 
0.020705 
0.012604 
0.012727 
0.014605 
0.016225 
0.016501 
0.009381 
0.000000 
0.007639 
0.014982 
0.000000 
0.017827 
0.018856 
0.021132 
0.025497 
0.000000 
0.025660 
0.022757 
0.000000 
0.031616 
0.000000 
0.019423 
0.009695 
0.000000 
0.006220 
0.013796 
0.018831 
0.000000 
0.015294 
0.013609 
0.015029 
0.018291 
0.000000 
0.000000 
0.000000 
0.027670 
0.000000 
0.015943 
0.012416 
0.009989 
0.010457 
0.015025 
0.000000 
0.013709 
0.009053 
0.010355 
0.000000 
0.024252 
0.000000 
0.022502 
0.016161 
0.017518 
0.023781 
0.029681 
0.000000 
0.000000 
0.000000 
0.029818 
0.026798 
0.000000 
0.000000 
0.023037 
0.017527 
0.018672 
0.022042 
0.000000 
0.023465 
0.000000 
0.021860 
0.018121 
0.018415 
0.017290 
0.017686 
0.024418 
0.000000 
0.000000 
0.000000 
0.030402 
0.000000 
0.013982 
0.008129 
0.012144 
0.000000 
0.000000 
0.000000 
0.000000 
0.025937 
0.000000 
0.000000 
0.000000 
0.014640 
0.024568 
0.024639 
0.016770 
0.012939 
0.014319 
0.016889 
0.024230 
0.031606 
0.000000 
0.021001 
0.012351 
0.011898 
0.000000 
0.014862 
0.000000 
0.008390 
0.004364 
0.009790 
0.000000 
0.023602 
0.022396 
0.000000 
0.000000 
0.019606 
0.019345 
0.016715 
0.016007 
0.021874 
0.000000 
0.021667 
0.013983 
0.007395 
0.000000 
0.000000 
0.010092 
0.016885 
0.018695 
0.017360 
0.017697 
0.000000 
0.017036 
0.018708 
0.019544 
0.020264 
0.020285 
0.017363 
0.013903 
0.012809 
0.011677 
0.009554 
0.010536 
0.012622 
0.011507 
0.008078 
0.008845 
0.015364 
0.000000 
0.025511 
0.020593 
0.014563 
0.016356 
0.000000 
0.028351 
0.000000 
0.042204 
0.000000 
0.032889 
0.000000 
0.029455 
0.000000 
0.018593 
0.013545 
0.016516 
0.000000 
0.021178 
0.017349 
0.017681 
0.018347 
0.019481 
0.000000 
0.000000 
0.015867 
0.017273 
0.023310 
0.026510 
0.000000 
0.018971 
0.012425 
0.006114 
0.000000 
0.006400 
0.016165 
0.025352 
0.030314 
0.031013 
0.000000 
0.008459 
0.007685 
0.008624 
0.017344 
0.000000 
0.000000 
0.020618 
0.018094 
0.000000 
0.020241 
0.024384 
0.031002 
0.000000 
0.022538 
0.014088 
0.011616 
0.011822 
0.011206 
0.009324 
0.004282 
0.000000 
0.008535 
0.018917 
0.000000 
0.025571 
0.022852 
0.019258 
0.016253 
0.016856 
0.015846 
0.014383 
0.018155 
0.000000 
0.018128 
0.014259 
0.011615 
0.006981 
0.006722 
0.013575 
0.000000 
0.024885 
0.024179 
0.000000 
0.020386 
0.018074 
0.017592 
0.015391 
0.015888 
0.000000 
0.017325 
0.017763 
0.019379 
0.000000 
0.012655 
0.010120 
0.010761 
0.000000 
0.007266 
0.005517 
0.009072 
0.016450 
0.000000 
0.000000 
0.013972 
0.014773 
0.000000 
0.023702 
0.030422 
0.000000 
0.000000 
0.030950 
0.000000 
0.024182 
0.019934 
0.015604 
0.012247 
0.015128 
0.000000 
0.018897 
0.013609 
0.013197 
0.000000 
0.018453 
0.000000 
0.019051 
0.012957 
0.012834 
0.000000 
0.016922 
0.014386 
0.007547 
0.000000 
0.000000 
0.000000 
0.000000 
0.010987 
0.021158 
0.000000 
0.000000 
0.025315 
0.000000 
0.016263 
0.015396 
0.019902 
0.000000 
0.000000 
0.021676 
0.021319 
0.000000 
0.023771 
0.000000 
0.000000 
0.000000 
0.027395 
0.021285 
0.016780 
0.013391 
0.011347 
0.007181 
0.000000 
0.000000 
0.008169 
0.017762 
0.000000 
0.000000 
0.026160 
0.021371 
0.018110 
0.000000 
0.000000 
0.017212 
0.018025 
0.019590 
0.018735 
0.019799 
0.000000 
0.013261 
0.011736 
0.018487 
0.027441 
0.000000 
0.000000 
0.027486 
0.024729 
0.024831 
0.000000 
0.017620 
0.015888 
0.018875 
0.019213 
0.000000 
0.000000 
0.024076 
0.016468 
0.012018 
0.009522 
0.007986 
0.003780 
0.000000 
0.000000 
0.007192 
0.012764 
0.013246 
0.009927 
0.010361 
0.014541 
0.017184 
0.000000 
0.025687 
0.026801 
0.025031 
0.000000 
0.018948 
0.016252 
0.000000 
0.013318 
0.013865 
0.016728 
0.000000 
0.010805 
0.008981 
0.010523 
0.012936 
0.016853 
0.015536 
0.010552 
0.009765 
0.012738 
0.012500 
0.009103 
0.000000 
0.000000 
0.000000 
0.000000 
0.000000 
0.009825 
0.000000 
0.022890 
0.022135 
0.017951 
0.021895 
0.000000 
0.022386 
0.021648 
0.021744 
0.020379 
0.017683 
0.000000 
0.021583 
0.022372 
0.023557 
0.027553 
0.000000 
0.032634 
0.000000 
0.000000 
0.018581 
0.000000 
0.010213 
0.006822 
0.008061 
0.011358 
0.017218 
0.023173 
0.027197 
0.000000 
0.000000 
0.019117 
0.019790 
0.021737 
0.019749 
0.000000 
0.022806 
0.023189 
0.000000 
0.000000 
0.014869 
0.013516 
0.000000 
0.000000 
0.000000 
0.028205 
0.000000 
0.030816 
0.000000 
0.000000 
0.020846 
0.018372 
0.000000 
0.019045 
0.021488 
0.026866 
0.000000 
0.019736 
0.000000 
0.009869 
0.006338 
0.000000 
0.000000 
0.000000 
0.000000 
0.007504 
0.010236 
0.008655 
0.009258 
0.012009 
0.012429 
0.015037 
0.018386 
0.000000 
0.020719 
0.019968 
0.015229 
0.014831 
0.017973 
0.016399 
0.015759 
0.013890 
0.011226 
0.007938 
0.007037 
0.007696 
0.010775 
0.016073 
0.000000 
0.011539 
0.010975 
0.015514 
0.017619 
0.014873 
0.010101 
0.008828 
0.005972 
0.000000 
0.000000 
0.009652 
0.017463 
0.019678 
0.000000 
0.014641 
0.020226 
0.023866 
0.000000 
0.000000 
0.019701 
0.016499 
0.013966 
0.015327 
0.018932 
0.000000 
0.022581 
0.023482 
0.028932 
0.000000 
0.000000 
0.026793 
0.019508 
0.017099 
0.012543 
0.011135 
0.000000 
0.016363 
0.000000 
0.022479 
0.025220 
0.000000 
0.023805 
0.018589 
0.020372 
0.000000 
0.022117 
0.023238 
0.000000 
0.000000 
0.020636 
0.015469 
0.008789 
0.007719 
0.011393 
0.014841 
0.016159 
0.017995 
0.024242 
0.000000 
0.000000 
0.027517 
0.021509 
0.019564 
0.000000 
0.016418 
0.017515 
0.000000 
0.000000 
0.017339 
0.012425 
0.009729 
0.008558 
0.004377 
0.000000 
0.000000 
0.004147 
0.008570 
0.000000 
0.011162 
0.012571 
0.000000 
0.012125 
0.012114 
0.015295 
0.018149 
0.019710 
0.000000 
0.015874 
0.018159 
0.000000 
0.024533 
0.000000 
0.017213 
0.011132 
0.009324 
0.010599 
0.010205 
0.012619 
0.000000 
0.017011 
0.012546 
0.013810 
0.000000 
0.000000 
0.000000 
0.019192 
0.000000 
0.015535 
0.010720 
0.009642 
0.013814 
0.000000 
0.019395 
0.016796 
0.013878 
0.017779 
0.022617 
0.000000 
0.024616 
0.018072 
0.000000 
0.014023 
0.013706 
0.017242 
0.000000 
0.026221 
0.025970 
0.028414 
0.032119 
0.000000 
0.025510 
0.021387 
0.000000 
0.016016 
0.013350 
0.014649 
0.016798 
0.018815 
0.000000 
0.021127 
0.000000 
0.020657 
0.019544 
0.022847 
0.000000 
0.023354 
0.022842 
0.023054 
0.019210 
0.013959 
0.008196 
0.000000 
0.000000 
0.000000 
0.000000 
0.000000 
0.007508 
0.016751 
0.000000 
0.025878 
0.022754 
0.000000 
0.019239 
0.016111 
0.011194 
0.010534 
0.014397 
0.015518 
0.011253 
0.009291 
0.010715 
0.000000 
0.009677 
0.006526 
0.006266 
0.008609 
0.010066 
0.012011 
0.012489 
0.015426 
0.016552 
0.012594 
0.011787 
0.000000 
0.016340 
0.000000 
0.017692 
0.016764 
0.021476 
0.000000 
0.030195 
0.000000 
0.022317 
0.014820 
0.014435 
0.000000 
0.015637 
0.015406 
0.019346 
0.018197 
0.013438 
0.013004 
0.019597 
0.000000 
0.023026 
0.021025 
0.023300 
0.000000 
0.020088 
0.018564 
0.018940 