# vtk DataFile Version 3.0
results.vtk
ASCII
DATASET RECTILINEAR_GRID
DIMENSIONS 100 100 1
X_COORDINATES 100 double
0.000000 0.010000 0.020000 0.030000 0.040000 0.050000 0.060000 0.070000 0.080000 0.090000 0.100000 0.110000 0.120000 0.130000 0.140000 0.150000 0.160000 0.170000 0.180000 0.190000 0.200000 0.210000 0.220000 0.230000 0.240000 0.250000 0.260000 0.270000 0.280000 0.290000 0.300000 0.310000 0.320000 0.330000 0.340000 0.350000 0.360000 0.370000 0.380000 0.390000 0.400000 0.410000 0.420000 0.430000 0.440000 0.450000 0.460000 0.470000 0.480000 0.490000 0.500000 0.510000 0.520000 0.530000 0.540000 0.550000 0.560000 0.570000 0.580000 0.590000 0.600000 0.610000 0.620000 0.630000 0.640000 0.650000 0.660000 0.670000 0.680000 0.690000 0.700000 0.710000 0.720000 0.730000 0.740000 0.750000 0.760000 0.770000 0.780000 0.790000 0.800000 0.810000 0.820000 0.830000 0.840000 0.850000 0.860000 0.870000 0.880000 0.890000 0.900000 0.910000 0.920000 0.930000 0.940000 0.950000 0.960000 0.970000 0.980000 0.990000 
Y_COORDINATES 100 double
0.000000 0.010000 0.020000 0.030000 0.040000 0.050000 0.060000 0.070000 0.080000 0.090000 0.100000 0.110000 0.120000 0.130000 0.140000 0.150000 0.160000 0.170000 0.180000 0.190000 0.200000 0.210000 0.220000 0.230000 0.240000 0.250000 0.260000 0.270000 0.280000 0.290000 0.300000 0.310000 0.320000 0.330000 0.340000 0.350000 0.360000 0.370000 0.380000 0.390000 0.400000 0.410000 0.420000 0.430000 0.440000 0.450000 0.460000 0.470000 0.480000 0.490000 0.500000 0.510000 0.520000 0.530000 0.540000 0.550000 0.560000 0.570000 0.580000 0.590000 0.600000 0.610000 0.620000 0.630000 0.640000 0.650000 0.660000 0.670000 0.680000 0.690000 0.700000 0.710000 0.720000 0.730000 0.740000 0.750000 0.760000 0.770000 0.780000 0.790000 0.800000 0.810000 0.820000 0.830000 0.840000 0.850000 0.860000 0.870000 0.880000 0.890000 0.900000 0.910000 0.920000 0.930000 0.940000 0.950000 0.960000 0.970000 0.980000 0.990000 
Z_COORDINATES 1 double
0
POINT_DATA 10000 
FIELD FieldData 1 
Concentração 1 10000 double 
0.042209 
0.000000 
0.037344 
0.031604 
0.000000 
0.027811 
0.028981 
0.029140 
0.000000 
0.019471 
0.023529 
0.029988 
0.000000 
0.022322 
0.000000 
0.000000 
0.000000 
0.030005 
0.000000 
0.000000 
0.031681 
0.000000 
0.000000 
0.030642 
0.030667 
0.000000 
0.019144 
0.016652 
0.019324 
0.017929 
0.018637 
0.026032 
0.029836 
0.025621 
0.017366 
0.017013 
0.022143 
0.000000 
0.013625 
0.013184 
0.000000 
0.023070 
0.026981 
0.023523 
0.011489 
0.000000 
0.006068 
0.015247 
0.000000 
0.000000 
0.000000 
0.032975 
0.000000 
0.009167 
0.000000 
0.000000 
0.000000 
0.019350 
0.038750 
0.000000 
0.039005 
0.000000 
0.028392 
0.027469 
0.024741 
0.018590 
0.018635 
0.023145 
0.021188 
0.019577 
0.013728 
0.009930 
0.007591 
0.008248 
0.009778 
0.013563 
0.000000 
0.007018 
0.000000 
0.000000 
0.007783 
0.013795 
0.022306 
0.028391 
0.034749 
0.000000 
0.026089 
0.000000 
0.017658 
0.021027 
0.000000 
0.000000 
0.018596 
0.009908 
0.009401 
0.016249 
0.000000 
0.017594 
0.009683 
0.000000 
0.040827 
0.000000 
0.000000 
0.029966 
0.000000 
0.025155 
0.000000 
0.000000 
0.022020 
0.020049 
0.026544 
0.000000 
0.025015 
0.018658 
0.022698 
0.031034 
0.034181 
0.029856 
0.024714 
0.023975 
0.028235 
0.000000 
0.031395 
0.030998 
0.000000 
0.027853 
0.020956 
0.019102 
0.000000 
0.020221 
0.019751 
0.000000 
0.000000 
0.000000 
0.018192 
0.018027 
0.000000 
0.017824 
0.011966 
0.012074 
0.017056 
0.023154 
0.000000 
0.000000 
0.012183 
0.000000 
0.006461 
0.014260 
0.021740 
0.031117 
0.000000 
0.032125 
0.019640 
0.008260 
0.000000 
0.000000 
0.007171 
0.023132 
0.000000 
0.000000 
0.037693 
0.000000 
0.026326 
0.000000 
0.000000 
0.021105 
0.022043 
0.000000 
0.023414 
0.000000 
0.016167 
0.013269 
0.010954 
0.011651 
0.012659 
0.015318 
0.012773 
0.005945 
0.000000 
0.004260 
0.010426 
0.015674 
0.000000 
0.030411 
0.000000 
0.000000 
0.023074 
0.019256 
0.018262 
0.020915 
0.024731 
0.000000 
0.016791 
0.010816 
0.010474 
0.015370 
0.000000 
0.017044 
0.011856 
0.006494 
0.000000 
0.033824 
0.028947 
0.025103 
0.020960 
0.016059 
0.016325 
0.017499 
0.018267 
0.022776 
0.000000 
0.000000 
0.022933 
0.014925 
0.019182 
0.000000 
0.000000 
0.000000 
0.024391 
0.020335 
0.000000 
0.026420 
0.027981 
0.000000 
0.031480 
0.000000 
0.026715 
0.024264 
0.023402 
0.000000 
0.016694 
0.018720 
0.021685 
0.020554 
0.017308 
0.019486 
0.020782 
0.015357 
0.011749 
0.013252 
0.016233 
0.000000 
0.023332 
0.021245 
0.012099 
0.006027 
0.008418 
0.000000 
0.016256 
0.023373 
0.000000 
0.000000 
0.020095 
0.009164 
0.000000 
0.000000 
0.010740 
0.027716 
0.000000 
0.000000 
0.033255 
0.024340 
0.018902 
0.019099 
0.021404 
0.024249 
0.026987 
0.000000 
0.023158 
0.021396 
0.018554 
0.000000 
0.016332 
0.000000 
0.018339 
0.000000 
0.014104 
0.005798 
0.000000 
0.006461 
0.000000 
0.015634 
0.022701 
0.000000 
0.027472 
0.022757 
0.018941 
0.021790 
0.024914 
0.000000 
0.020362 
0.017932 
0.014949 
0.015102 
0.014864 
0.014688 
0.016928 
0.015088 
0.000000 
0.009822 
0.027352 
0.000000 
0.025665 
0.000000 
0.019254 
0.011636 
0.010149 
0.014067 
0.021276 
0.029077 
0.035094 
0.000000 
0.019820 
0.011982 
0.015093 
0.025010 
0.000000 
0.000000 
0.022959 
0.017602 
0.018894 
0.022375 
0.026809 
0.000000 
0.029111 
0.028604 
0.000000 
0.000000 
0.023887 
0.016881 
0.011672 
0.013641 
0.019315 
0.021557 
0.020777 
0.000000 
0.000000 
0.016908 
0.015034 
0.000000 
0.014747 
0.015493 
0.017840 
0.000000 
0.013104 
0.008401 
0.007686 
0.008875 
0.008540 
0.014459 
0.024329 
0.000000 
0.020851 
0.013472 
0.005387 
0.000000 
0.012017 
0.000000 
0.000000 
0.036816 
0.000000 
0.020505 
0.016377 
0.015732 
0.020752 
0.000000 
0.000000 
0.027226 
0.020935 
0.000000 
0.018299 
0.018348 
0.014962 
0.014334 
0.016553 
0.000000 
0.014636 
0.006855 
0.000000 
0.005450 
0.009176 
0.011184 
0.017823 
0.000000 
0.022644 
0.018721 
0.020283 
0.000000 
0.000000 
0.028791 
0.019124 
0.015935 
0.017984 
0.000000 
0.000000 
0.017815 
0.016983 
0.013307 
0.011050 
0.008146 
0.017973 
0.018665 
0.020933 
0.000000 
0.021734 
0.013431 
0.011495 
0.018967 
0.000000 
0.000000 
0.000000 
0.031685 
0.017886 
0.011689 
0.014109 
0.018449 
0.023086 
0.024963 
0.022615 
0.019807 
0.019622 
0.000000 
0.028253 
0.000000 
0.026015 
0.023582 
0.000000 
0.025161 
0.000000 
0.012756 
0.008140 
0.013379 
0.000000 
0.000000 
0.023949 
0.024091 
0.021558 
0.017615 
0.018514 
0.017792 
0.013558 
0.011735 
0.014836 
0.019226 
0.015910 
0.013240 
0.010049 
0.006582 
0.000000 
0.009329 
0.017836 
0.022158 
0.022526 
0.000000 
0.009589 
0.000000 
0.007730 
0.019622 
0.000000 
0.025938 
0.022971 
0.018543 
0.000000 
0.015986 
0.019675 
0.000000 
0.031624 
0.026518 
0.018642 
0.016285 
0.016721 
0.000000 
0.013702 
0.010458 
0.011917 
0.016679 
0.015728 
0.011587 
0.009019 
0.007738 
0.007727 
0.008380 
0.014257 
0.022914 
0.023970 
0.022255 
0.024292 
0.032823 
0.000000 
0.000000 
0.021073 
0.020008 
0.023202 
0.025340 
0.022086 
0.019743 
0.000000 
0.015527 
0.011651 
0.009596 
0.016479 
0.016322 
0.018337 
0.023951 
0.000000 
0.018889 
0.017162 
0.026103 
0.038461 
0.000000 
0.042002 
0.000000 
0.018463 
0.014138 
0.000000 
0.018862 
0.019887 
0.024336 
0.000000 
0.000000 
0.022737 
0.024587 
0.029010 
0.000000 
0.024476 
0.018753 
0.017159 
0.014583 
0.011737 
0.006828 
0.000000 
0.010438 
0.019393 
0.000000 
0.022546 
0.000000 
0.022502 
0.022097 
0.000000 
0.025033 
0.018777 
0.014611 
0.018255 
0.000000 
0.022525 
0.000000 
0.018261 
0.012598 
0.008719 
0.011006 
0.000000 
0.019995 
0.000000 
0.022830 
0.012125 
0.000000 
0.000000 
0.008034 
0.013294 
0.015523 
0.000000 
0.015418 
0.015083 
0.015044 
0.016439 
0.023809 
0.000000 
0.000000 
0.021441 
0.016159 
0.016321 
0.016503 
0.013716 
0.009912 
0.011325 
0.017635 
0.000000 
0.018231 
0.000000 
0.012546 
0.011264 
0.010556 
0.015517 
0.000000 
0.000000 
0.000000 
0.031521 
0.000000 
0.035127 
0.026698 
0.021038 
0.000000 
0.000000 
0.000000 
0.023077 
0.019925 
0.000000 
0.018095 
0.017295 
0.017762 
0.000000 
0.022721 
0.022520 
0.024619 
0.000000 
0.023808 
0.024225 
0.000000 
0.000000 
0.000000 
0.000000 
0.029879 
0.017880 
0.014025 
0.016506 
0.000000 
0.019479 
0.000000 
0.027489 
0.026582 
0.027116 
0.029150 
0.000000 
0.034351 
0.030064 
0.022905 
0.015345 
0.010600 
0.008297 
0.007284 
0.007050 
0.011113 
0.013670 
0.015477 
0.015069 
0.017862 
0.000000 
0.023101 
0.000000 
0.000000 
0.000000 
0.019203 
0.021752 
0.000000 
0.024732 
0.026941 
0.000000 
0.021731 
0.015988 
0.011668 
0.011790 
0.014149 
0.021043 
0.000000 
0.016459 
0.006196 
0.000000 
0.000000 
0.000000 
0.005994 
0.010658 
0.011924 
0.013158 
0.000000 
0.014325 
0.018058 
0.024393 
0.000000 
0.025017 
0.019653 
0.000000 
0.016896 
0.000000 
0.010832 
0.011938 
0.000000 
0.020551 
0.020169 
0.016949 
0.014210 
0.000000 
0.014224 
0.016501 
0.023121 
0.027938 
0.029651 
0.000000 
0.037875 
0.000000 
0.025013 
0.018466 
0.022465 
0.030106 
0.031605 
0.025241 
0.019854 
0.019028 
0.018267 
0.000000 
0.000000 
0.026968 
0.000000 
0.000000 
0.026318 
0.024662 
0.000000 
0.024673 
0.000000 
0.040611 
0.039979 
0.034645 
0.000000 
0.018851 
0.014960 
0.013111 
0.013003 
0.013837 
0.019022 
0.000000 
0.028104 
0.000000 
0.000000 
0.035561 
0.000000 
0.000000 
0.000000 
0.022613 
0.015601 
0.013009 
0.014109 
0.013938 
0.000000 
0.012873 
0.011656 
0.010496 
0.010914 
0.012868 
0.015965 
0.022967 
0.025463 
0.020987 
0.017207 
0.000000 
0.021612 
0.023158 
0.000000 
0.029799 
0.000000 
0.000000 
0.012234 
0.006963 
0.008014 
0.016485 
0.000000 
0.021171 
0.012275 
0.006001 
0.000000 
0.000000 
0.000000 
0.008102 
0.012759 
0.012520 
0.012710 
0.013531 
0.016900 
0.019434 
0.024641 
0.000000 
0.022433 
0.017842 
0.013084 
0.010074 
0.006535 
0.008588 
0.013838 
0.018515 
0.000000 
0.016956 
0.013123 
0.015006 
0.018148 
0.021386 
0.024930 
0.000000 
0.026531 
0.032295 
0.000000 
0.000000 
0.026913 
0.019644 
0.022283 
0.000000 
0.000000 
0.000000 
0.025021 
0.020046 
0.015931 
0.016420 
0.017514 
0.021418 
0.024267 
0.027050 
0.000000 
0.018567 
0.016092 
0.017939 
0.028200 
0.000000 
0.000000 
0.032876 
0.027595 
0.021014 
0.000000 
0.012943 
0.009886 
0.009875 
0.013029 
0.018806 
0.025552 
0.000000 
0.035254 
0.033928 
0.042227 
0.000000 
0.000000 
0.027922 
0.000000 
0.020671 
0.000000 
0.020320 
0.017220 
0.015327 
0.015502 
0.013715 
0.009986 
0.008980 
0.012440 
0.019573 
0.000000 
0.016887 
0.012144 
0.012776 
0.015708 
0.021657 
0.027961 
0.029755 
0.028135 
0.020402 
0.009499 
0.000000 
0.000000 
0.012255 
0.022233 
0.000000 
0.021149 
0.015935 
0.008406 
0.000000 
0.000000 
0.010575 
0.000000 
0.016637 
0.014664 
0.018091 
0.000000 
0.019523 
0.021598 
0.000000 
0.027014 
0.021158 
0.013307 
0.007127 
0.000000 
0.007812 
0.012347 
0.016425 
0.000000 
0.016969 
0.013487 
0.015668 
0.000000 
0.000000 
0.000000 
0.024473 
0.022701 
0.000000 
0.033186 
0.033386 
0.000000 
0.023723 
0.023087 
0.030260 
0.000000 
0.030076 
0.000000 
0.000000 
0.016949 
0.012777 
0.010242 
0.019151 
0.021914 
0.000000 
0.018462 
0.012414 
0.010410 
0.012326 
0.021895 
0.000000 
0.033756 
0.000000 
0.000000 
0.023021 
0.020859 
0.015112 
0.012677 
0.012894 
0.013645 
0.017454 
0.022344 
0.000000 
0.000000 
0.032639 
0.000000 
0.000000 
0.036963 
0.026561 
0.021404 
0.022442 
0.000000 
0.027480 
0.023412 
0.022489 
0.000000 
0.000000 
0.013988 
0.010364 
0.013253 
0.000000 
0.018908 
0.014800 
0.009106 
0.007504 
0.012806 
0.000000 
0.000000 
0.000000 
0.000000 
0.021887 
0.010180 
0.000000 
0.005276 
0.013361 
0.020936 
0.000000 
0.029693 
0.000000 
0.018809 
0.007282 
0.000000 
0.010981 
0.000000 
0.021513 
0.020343 
0.025402 
0.000000 
0.019830 
0.018876 
0.027295 
0.000000 
0.000000 
0.019710 
0.011778 
0.010650 
0.016856 
0.018739 
0.016933 
0.018067 
0.017920 
0.016006 
0.014668 
0.017465 
0.020934 
0.022014 
0.021157 
0.018569 
0.022588 
0.000000 
0.032641 
0.031756 
0.000000 
0.024945 
0.000000 
0.025021 
0.020117 
0.019167 
0.020088 
0.019903 
0.016034 
0.010783 
0.019068 
0.000000 
0.018149 
0.013016 
0.010482 
0.010470 
0.010440 
0.015991 
0.000000 
0.025327 
0.025667 
0.025697 
0.023746 
0.000000 
0.021158 
0.020866 
0.000000 
0.019020 
0.000000 
0.018167 
0.020485 
0.022291 
0.025624 
0.000000 
0.000000 
0.033011 
0.000000 
0.022277 
0.023984 
0.032794 
0.000000 
0.033774 
0.000000 
0.023693 
0.020751 
0.016581 
0.013099 
0.014289 
0.015306 
0.014576 
0.000000 
0.007126 
0.000000 
0.006506 
0.015895 
0.022172 
0.025421 
0.027269 
0.000000 
0.013369 
0.007117 
0.009629 
0.000000 
0.019461 
0.024422 
0.000000 
0.000000 
0.000000 
0.010054 
0.000000 
0.007311 
0.018292 
0.000000 
0.028407 
0.000000 
0.032835 
0.021334 
0.018876 
0.027488 
0.000000 
0.031283 
0.000000 
0.017954 
0.020951 
0.000000 
0.000000 
0.023010 
0.019213 
0.000000 
0.000000 
0.017125 
0.016065 
0.019210 
0.021773 
0.000000 
0.018494 
0.018777 
0.026121 
0.000000 
0.000000 
0.027467 
0.025459 
0.024159 
0.020307 
0.015113 
0.015577 
0.020853 
0.000000 
0.000000 
0.015259 
0.017665 
0.017414 
0.015773 
0.013034 
0.014818 
0.000000 
0.009898 
0.009430 
0.016660 
0.021686 
0.023899 
0.000000 
0.022065 
0.000000 
0.023646 
0.000000 
0.023720 
0.022147 
0.020687 
0.015448 
0.014872 
0.016787 
0.018958 
0.025882 
0.031037 
0.030164 
0.028662 
0.026609 
0.029022 
0.000000 
0.000000 
0.000000 
0.029687 
0.021371 
0.021046 
0.000000 
0.016948 
0.000000 
0.012755 
0.008242 
0.007093 
0.003707 
0.000000 
0.000000 
0.013744 
0.018298 
0.019607 
0.000000 
0.019836 
0.014558 
0.009833 
0.011835 
0.017662 
0.018052 
0.017392 
0.020567 
0.023331 
0.017030 
0.006283 
0.000000 
0.000000 
0.015239 
0.028983 
0.037059 
0.000000 
0.000000 
0.027416 
0.023328 
0.000000 
0.035970 
0.034459 
0.029027 
0.024520 
0.028421 
0.000000 
0.000000 
0.027328 
0.018757 
0.017901 
0.020476 
0.021972 
0.021050 
0.000000 
0.026296 
0.000000 
0.021179 
0.020356 
0.025362 
0.000000 
0.026963 
0.025161 
0.000000 
0.027661 
0.000000 
0.017825 
0.019765 
0.025022 
0.000000 
0.024410 
0.015061 
0.030366 
0.028205 
0.027923 
0.024326 
0.028287 
0.018324 
0.007663 
0.000000 
0.017676 
0.032040 
0.000000 
0.020281 
0.013252 
0.014011 
0.017288 
0.000000 
0.025525 
0.032066 
0.000000 
0.020057 
0.019638 
0.000000 
0.022601 
0.026370 
0.000000 
0.000000 
0.000000 
0.000000 
0.000000 
0.038002 
0.051979 
0.000000 
0.030966 
0.020591 
0.000000 
0.021590 
0.017128 
0.017401 
0.012852 
0.000000 
0.000000 
0.000000 
0.000000 
0.015540 
0.026961 
0.000000 
0.016706 
0.015903 
0.015827 
0.000000 
0.014025 
0.020441 
0.028688 
0.000000 
0.016449 
0.018247 
0.025420 
0.017601 
0.000000 
0.000000 
0.000000 
0.020164 
0.000000 
0.054223 
0.000000 
0.000000 
0.035764 
0.029631 
0.000000 
0.050241 
0.000000 
0.051370 
0.045278 
0.039930 
0.000000 
0.040502 
0.000000 
0.023233 
0.019410 
0.027464 
0.000000 
0.033077 
0.037181 
0.037886 
0.040778 
0.031906 
0.035396 
0.037101 
0.031630 
0.024468 
0.021774 
0.000000 
0.000000 
0.022459 
0.022267 
0.000000 
0.038715 
0.036824 
0.031129 
0.018329 
0.000000 
0.062547 
0.000000 
0.052153 
0.000000 
0.031892 
0.010649 
0.011374 
0.036380 
0.000000 
0.041725 
0.020454 
0.000000 
0.000000 
0.007889 
0.016328 
0.029400 
0.000000 
0.050761 
0.034444 
0.039556 
0.039767 
0.044190 
0.045016 
0.034086 
0.030029 
0.025625 
0.024741 
0.028843 
0.040096 
0.000000 
0.000000 
0.037312 
0.024290 
0.028869 
0.033063 
0.027446 
0.035051 
0.033485 
0.021476 
0.020410 
0.027901 
0.029859 
0.046013 
0.000000 
0.033316 
0.016391 
0.015296 
0.016326 
0.016230 
0.021023 
0.042114 
0.000000 
0.036431 
0.020216 
0.026268 
0.000000 
0.039327 
0.015172 
0.000000 
0.008662 
0.030452 
0.000000 
0.000000 
0.089419 
0.000000 
0.052862 
0.044720 
0.054077 
0.000000 
0.000000 
0.000000 
0.000000 
0.063813 
0.000000 
0.050536 
0.050089 
0.045405 
0.035175 
0.051473 
0.000000 
0.058270 
0.000000 
0.076612 
0.000000 
0.061074 
0.000000 
0.000000 
0.057816 
0.040414 
0.022569 
0.020342 
0.020777 
0.022821 
0.033923 
0.061119 
0.000000 
0.068040 
0.000000 
0.030927 
0.067401 
0.000000 
0.054572 
0.051977 
0.000000 
0.032737 
0.012580 
0.021027 
0.054734 
0.000000 
0.047922 
0.033914 
0.012639 
0.000000 
0.000000 
0.000000 
0.015220 
0.042486 
0.000000 
0.057705 
0.000000 
0.081656 
0.000000 
0.000000 
0.053225 
0.039631 
0.022505 
0.019536 
0.028010 
0.027668 
0.041491 
0.042637 
0.030002 
0.038733 
0.051395 
0.000000 
0.052230 
0.000000 
0.000000 
0.058434 
0.058507 
0.000000 
0.070214 
0.000000 
0.061171 
0.029722 
0.020128 
0.032571 
0.035503 
0.022948 
0.028858 
0.000000 
0.051165 
0.040183 
0.024077 
0.021965 
0.042113 
0.000000 
0.032641 
0.025828 
0.018105 
0.019794 
0.039857 
0.059377 
0.000000 
0.000000 
0.057611 
0.000000 
0.056852 
0.054719 
0.056041 
0.066455 
0.000000 
0.053909 
0.059142 
0.056409 
0.000000 
0.000000 
0.065060 
0.000000 
0.074080 
0.062256 
0.070245 
0.000000 
0.000000 
0.060024 
0.063870 
0.066869 
0.000000 
0.000000 
0.030691 
0.015238 
0.020058 
0.039705 
0.063919 
0.000000 
0.097092 
0.000000 
0.050744 
0.027630 
0.054086 
0.059214 
0.046223 
0.055666 
0.060432 
0.028180 
0.015570 
0.035805 
0.000000 
0.081610 
0.058448 
0.000000 
0.030890 
0.015632 
0.018467 
0.008390 
0.000000 
0.024840 
0.050973 
0.059838 
0.000000 
0.000000 
0.098301 
0.000000 
0.075504 
0.000000 
0.036869 
0.028987 
0.000000 
0.034366 
0.042096 
0.043656 
0.040111 
0.000000 
0.000000 
0.057818 
0.052572 
0.052511 
0.063207 
0.000000 
0.000000 
0.092366 
0.000000 
0.073861 
0.000000 
0.032291 
0.033320 
0.000000 
0.000000 
0.038198 
0.028543 
0.046842 
0.047442 
0.000000 
0.048027 
0.027522 
0.033341 
0.047599 
0.040271 
0.000000 
0.039884 
0.021669 
0.022796 
0.031510 
0.044351 
0.042629 
0.031479 
0.044625 
0.000000 
0.051328 
0.038288 
0.043372 
0.043430 
0.042303 
0.000000 
0.065850 
0.079897 
0.000000 
0.075089 
0.066835 
0.000000 
0.000000 
0.065079 
0.000000 
0.069714 
0.054493 
0.000000 
0.060363 
0.070053 
0.064120 
0.029514 
0.016612 
0.032404 
0.000000 
0.000000 
0.000000 
0.000000 
0.081842 
0.046463 
0.040274 
0.084064 
0.000000 
0.073754 
0.000000 
0.000000 
0.042269 
0.022789 
0.044116 
0.000000 
0.000000 
0.065899 
0.000000 
0.034402 
0.025672 
0.000000 
0.018841 
0.009430 
0.026601 
0.000000 
0.060186 
0.073134 
0.000000 
0.095828 
0.000000 
0.086351 
0.000000 
0.037881 
0.024327 
0.030122 
0.036203 
0.000000 
0.000000 
0.042410 
0.042859 
0.044857 
0.052066 
0.000000 
0.056091 
0.057809 
0.067175 
0.069420 
0.000000 
0.000000 
0.056310 
0.035954 
0.020217 
0.025609 
0.050325 
0.000000 
0.037231 
0.030408 
0.000000 
0.047503 
0.070702 
0.000000 
0.048920 
0.050121 
0.000000 
0.038245 
0.045544 
0.000000 
0.036282 
0.039148 
0.045880 
0.047657 
0.032163 
0.020628 
0.024178 
0.042460 
0.000000 
0.046985 
0.000000 
0.033325 
0.035871 
0.069318 
0.000000 
0.087954 
0.000000 
0.000000 
0.054852 
0.058248 
0.048249 
0.045283 
0.064957 
0.064560 
0.067130 
0.078970 
0.080438 
0.000000 
0.000000 
0.048237 
0.026552 
0.036102 
0.046504 
0.052580 
0.070666 
0.000000 
0.000000 
0.063950 
0.000000 
0.000000 
0.000000 
0.084354 
0.000000 
0.000000 
0.050220 
0.033578 
0.049504 
0.069205 
0.000000 
0.047353 
0.037966 
0.018699 
0.012081 
0.017767 
0.008289 
0.000000 
0.021923 
0.047700 
0.000000 
0.056351 
0.082312 
0.000000 
0.088867 
0.000000 
0.063080 
0.033334 
0.031209 
0.027731 
0.028848 
0.045236 
0.058304 
0.042866 
0.041662 
0.041765 
0.058900 
0.000000 
0.074434 
0.000000 
0.000000 
0.050102 
0.056710 
0.066247 
0.049296 
0.030970 
0.024796 
0.031764 
0.035237 
0.039626 
0.024029 
0.017706 
0.028451 
0.038664 
0.000000 
0.000000 
0.061795 
0.000000 
0.043576 
0.022774 
0.027885 
0.046298 
0.045167 
0.000000 
0.000000 
0.000000 
0.065744 
0.039672 
0.021310 
0.022580 
0.034789 
0.038396 
0.032634 
0.023205 
0.041432 
0.000000 
0.087685 
0.000000 
0.070454 
0.052594 
0.044871 
0.000000 
0.045309 
0.057598 
0.000000 
0.000000 
0.000000 
0.000000 
0.000000 
0.105091 
0.000000 
0.073972 
0.049906 
0.000000 
0.047152 
0.029492 
0.032597 
0.055758 
0.068075 
0.064728 
0.072988 
0.081924 
0.077330 
0.071643 
0.000000 
0.079999 
0.059610 
0.064122 
0.000000 
0.067386 
0.049611 
0.035265 
0.034763 
0.019282 
0.000000 
0.000000 
0.000000 
0.013627 
0.035243 
0.047899 
0.042400 
0.043172 
0.000000 
0.000000 
0.070810 
0.000000 
0.060312 
0.044545 
0.000000 
0.060227 
0.052613 
0.055271 
0.000000 
0.078195 
0.000000 
0.070302 
0.000000 
0.067767 
0.000000 
0.058677 
0.046560 
0.036204 
0.054858 
0.000000 
0.000000 
0.058972 
0.056873 
0.000000 
0.058953 
0.054340 
0.038553 
0.019337 
0.016511 
0.019208 
0.037896 
0.052438 
0.054427 
0.052857 
0.027520 
0.014180 
0.025422 
0.000000 
0.042825 
0.051876 
0.074498 
0.000000 
0.000000 
0.000000 
0.037600 
0.026527 
0.035231 
0.000000 
0.028192 
0.022428 
0.049515 
0.000000 
0.092020 
0.000000 
0.055949 
0.048823 
0.046989 
0.046653 
0.045378 
0.000000 
0.076154 
0.082174 
0.000000 
0.000000 
0.000000 
0.113876 
0.000000 
0.000000 
0.075274 
0.058296 
0.000000 
0.028999 
0.029686 
0.059546 
0.000000 
0.000000 
0.000000 
0.000000 
0.000000 
0.069691 
0.000000 
0.078578 
0.000000 
0.000000 
0.000000 
0.000000 
0.051040 
0.057170 
0.000000 
0.049115 
0.019905 
0.013747 
0.024400 
0.035590 
0.000000 
0.000000 
0.041323 
0.023761 
0.034756 
0.041050 
0.037563 
0.050390 
0.000000 
0.051055 
0.080198 
0.000000 
0.000000 
0.075691 
0.000000 
0.000000 
0.089470 
0.000000 
0.056261 
0.035709 
0.039902 
0.046948 
0.045754 
0.042219 
0.000000 
0.055029 
0.058687 
0.000000 
0.000000 
0.078724 
0.000000 
0.000000 
0.000000 
0.039018 
0.027688 
0.017605 
0.026357 
0.053412 
0.000000 
0.000000 
0.028802 
0.012377 
0.019748 
0.037711 
0.047759 
0.049187 
0.055444 
0.000000 
0.081503 
0.060908 
0.055196 
0.053967 
0.050075 
0.036934 
0.022268 
0.030086 
0.063213 
0.000000 
0.000000 
0.076591 
0.056123 
0.000000 
0.000000 
0.065147 
0.053604 
0.055198 
0.000000 
0.054008 
0.081185 
0.000000 
0.000000 
0.000000 
0.115613 
0.000000 
0.000000 
0.052871 
0.032677 
0.022887 
0.042053 
0.000000 
0.070086 
0.057015 
0.050284 
0.040958 
0.040009 
0.046295 
0.000000 
0.072748 
0.068479 
0.055377 
0.049161 
0.043379 
0.048118 
0.000000 
0.095092 
0.000000 
0.041540 
0.028678 
0.000000 
0.040479 
0.055525 
0.000000 
0.033885 
0.011620 
0.014160 
0.024362 
0.031826 
0.030709 
0.039277 
0.049763 
0.000000 
0.000000 
0.000000 
0.067916 
0.085727 
0.000000 
0.087184 
0.000000 
0.039050 
0.019078 
0.031617 
0.000000 
0.000000 
0.053004 
0.038609 
0.027034 
0.030605 
0.046817 
0.065088 
0.070628 
0.086160 
0.000000 
0.074929 
0.045365 
0.000000 
0.026827 
0.030582 
0.000000 
0.065432 
0.043692 
0.018488 
0.015257 
0.032148 
0.052133 
0.000000 
0.000000 
0.046582 
0.057118 
0.000000 
0.070814 
0.000000 
0.000000 
0.000000 
0.051289 
0.036113 
0.057164 
0.000000 
0.071695 
0.061825 
0.000000 
0.052662 
0.063503 
0.071367 
0.000000 
0.000000 
0.045284 
0.039390 
0.032385 
0.049533 
0.000000 
0.102236 
0.103963 
0.000000 
0.098546 
0.000000 
0.045179 
0.020188 
0.023937 
0.059428 
0.000000 
0.076735 
0.053488 
0.036158 
0.010253 
0.011581 
0.020665 
0.052480 
0.000000 
0.000000 
0.039451 
0.022792 
0.024635 
0.042030 
0.000000 
0.000000 
0.000000 
0.049321 
0.023737 
0.031220 
0.035701 
0.037104 
0.046803 
0.021151 
0.000000 
0.015858 
0.041672 
0.000000 
0.040427 
0.043795 
0.049566 
0.065132 
0.000000 
0.064425 
0.049132 
0.000000 
0.090250 
0.000000 
0.050139 
0.019233 
0.000000 
0.013047 
0.035573 
0.052426 
0.000000 
0.034044 
0.025987 
0.033313 
0.043113 
0.000000 
0.000000 
0.000000 
0.076398 
0.000000 
0.036798 
0.029171 
0.019352 
0.020272 
0.041687 
0.000000 
0.034097 
0.016393 
0.024540 
0.000000 
0.070274 
0.000000 
0.058460 
0.029236 
0.033899 
0.058325 
0.069639 
0.000000 
0.000000 
0.000000 
0.068391 
0.065158 
0.000000 
0.000000 
0.054526 
0.032942 
0.042143 
0.057093 
0.000000 
0.060238 
0.000000 
0.057013 
0.036686 
0.043325 
0.038498 
0.033801 
0.059069 
0.000000 
0.000000 
0.000000 
0.079229 
0.000000 
0.033859 
0.015023 
0.029210 
0.000000 
0.000000 
0.000000 
0.000000 
0.064305 
0.000000 
0.000000 
0.000000 
0.031315 
0.065560 
0.064948 
0.031821 
0.021763 
0.031032 
0.031743 
0.054726 
0.080332 
0.000000 
0.047894 
0.020998 
0.028021 
0.000000 
0.042033 
0.000000 
0.022730 
0.009694 
0.024804 
0.000000 
0.068553 
0.055096 
0.000000 
0.000000 
0.045169 
0.043737 
0.031346 
0.028213 
0.055292 
0.000000 
0.055573 
0.027356 
0.012489 
0.000000 
0.000000 
0.020415 
0.040238 
0.043251 
0.035833 
0.045317 
0.000000 
0.038564 
0.043843 
0.045341 
0.046961 
0.048166 
0.038962 
0.025873 
0.025433 
0.026678 
0.016870 
0.020662 
0.032050 
0.029965 
0.015411 
0.017748 
0.042928 
0.000000 
0.073946 
0.050968 
0.026894 
0.036935 
0.000000 
0.069909 
0.000000 
0.115872 
0.000000 
0.080279 
0.000000 
0.080767 
0.000000 
0.042383 
0.023171 
0.038632 
0.000000 
0.056260 
0.035153 
0.041291 
0.044112 
0.047706 
0.000000 
0.000000 
0.035129 
0.035264 
0.059515 
0.069418 
0.000000 
0.045864 
0.031749 
0.012685 
0.000000 
0.012789 
0.038418 
0.062403 
0.078109 
0.084307 
0.000000 
0.022701 
0.016070 
0.014898 
0.041074 
0.000000 
0.000000 
0.048109 
0.042865 
0.000000 
0.046417 
0.055093 
0.078713 
0.000000 
0.050494 
0.023805 
0.021228 
0.027370 
0.024674 
0.024226 
0.009634 
0.000000 
0.017726 
0.052018 
0.000000 
0.065850 
0.054189 
0.043460 
0.031121 
0.038981 
0.035859 
0.026175 
0.042634 
0.000000 
0.041556 
0.028190 
0.028289 
0.013452 
0.011186 
0.031559 
0.000000 
0.065297 
0.061676 
0.000000 
0.050199 
0.036680 
0.039232 
0.029084 
0.034516 
0.000000 
0.040405 
0.042427 
0.052131 
0.000000 
0.028713 
0.019546 
0.027416 
0.000000 
0.019946 
0.010105 
0.020418 
0.046812 
0.000000 
0.000000 
0.033118 
0.035776 
0.000000 
0.056816 
0.080332 
0.000000 
0.000000 
0.077641 
0.000000 
0.058070 
0.046670 
0.035640 
0.022234 
0.035665 
0.000000 
0.052698 
0.027283 
0.030614 
0.000000 
0.050451 
0.000000 
0.053119 
0.025578 
0.028147 
0.000000 
0.040015 
0.034277 
0.014931 
0.000000 
0.000000 
0.000000 
0.000000 
0.023194 
0.055043 
0.000000 
0.000000 
0.064095 
0.000000 
0.044095 
0.031559 
0.046782 
0.000000 
0.000000 
0.052663 
0.056480 
0.000000 
0.061697 
0.000000 
0.000000 
0.000000 
0.064995 
0.048505 
0.038187 
0.027860 
0.027212 
0.015352 
0.000000 
0.000000 
0.014621 
0.044200 
0.000000 
0.000000 
0.067727 
0.050211 
0.041343 
0.000000 
0.000000 
0.039993 
0.041497 
0.045813 
0.039107 
0.052856 
0.000000 
0.033280 
0.023034 
0.046346 
0.079487 
0.000000 
0.000000 
0.073022 
0.054374 
0.062661 
0.000000 
0.039334 
0.031871 
0.050325 
0.046755 
0.000000 
0.000000 
0.069749 
0.036687 
0.028049 
0.020595 
0.021944 
0.008913 
0.000000 
0.000000 
0.016327 
0.033146 
0.034108 
0.018029 
0.018717 
0.035363 
0.039102 
0.000000 
0.064852 
0.067542 
0.058331 
0.000000 
0.043057 
0.036768 
0.000000 
0.029274 
0.028577 
0.046147 
0.000000 
0.025364 
0.017232 
0.024432 
0.026451 
0.042295 
0.038312 
0.018734 
0.016888 
0.029522 
0.024076 
0.016894 
0.000000 
0.000000 
0.000000 
0.000000 
0.000000 
0.024673 
0.000000 
0.060814 
0.057274 
0.035543 
0.062208 
0.000000 
0.058335 
0.050854 
0.051452 
0.048608 
0.039860 
0.000000 
0.056951 
0.053248 
0.053436 
0.067562 
0.000000 
0.087450 
0.000000 
0.000000 
0.049028 
0.000000 
0.025356 
0.014777 
0.021494 
0.023396 
0.039723 
0.056292 
0.070072 
0.000000 
0.000000 
0.043314 
0.047509 
0.058259 
0.046236 
0.000000 
0.059926 
0.061310 
0.000000 
0.000000 
0.038763 
0.033447 
0.000000 
0.000000 
0.000000 
0.077444 
0.000000 
0.083252 
0.000000 
0.000000 
0.049179 
0.042677 
0.000000 
0.045675 
0.052623 
0.077279 
0.000000 
0.053503 
0.000000 
0.024803 
0.014335 
0.000000 
0.000000 
0.000000 
0.000000 
0.016451 
0.026293 
0.015768 
0.016722 
0.028656 
0.024440 
0.033653 
0.043102 
0.000000 
0.048991 
0.051890 
0.029157 
0.028634 
0.047173 
0.034347 
0.035281 
0.028843 
0.025837 
0.013890 
0.011085 
0.012067 
0.020549 
0.044707 
0.000000 
0.026264 
0.020798 
0.038134 
0.044520 
0.035995 
0.021922 
0.023348 
0.013934 
0.000000 
0.000000 
0.020995 
0.047490 
0.049317 
0.000000 
0.031909 
0.041372 
0.059755 
0.000000 
0.000000 
0.044898 
0.036638 
0.026413 
0.033611 
0.044733 
0.000000 
0.049117 
0.044755 
0.067447 
0.000000 
0.000000 
0.067043 
0.040428 
0.043778 
0.025945 
0.025930 
0.000000 
0.044491 
0.000000 
0.056128 
0.060631 
0.000000 
0.060530 
0.035792 
0.045110 
0.000000 
0.050820 
0.058222 
0.000000 
0.000000 
0.054759 
0.038970 
0.017249 
0.015026 
0.029996 
0.039044 
0.039729 
0.037248 
0.060385 
0.000000 
0.000000 
0.069981 
0.048625 
0.046350 
0.000000 
0.038104 
0.040515 
0.000000 
0.000000 
0.043028 
0.029566 
0.020516 
0.022301 
0.009557 
0.000000 
0.000000 
0.009202 
0.022145 
0.000000 
0.027060 
0.030980 
0.000000 
0.027298 
0.023618 
0.035523 
0.044169 
0.051419 
0.000000 
0.034035 
0.040631 
0.000000 
0.062546 
0.000000 
0.039836 
0.019300 
0.016405 
0.025501 
0.019310 
0.027946 
0.000000 
0.045722 
0.024621 
0.031300 
0.000000 
0.000000 
0.000000 
0.049984 
0.000000 
0.042492 
0.022630 
0.018200 
0.031872 
0.000000 
0.050586 
0.038555 
0.025183 
0.029673 
0.050785 
0.000000 
0.063284 
0.040524 
0.000000 
0.031144 
0.026121 
0.038289 
0.000000 
0.065571 
0.056957 
0.064388 
0.082516 
0.000000 
0.055405 
0.044438 
0.000000 
0.034823 
0.025878 
0.034655 
0.042116 
0.049896 
0.000000 
0.053381 
0.000000 
0.047941 
0.042101 
0.054168 
0.000000 
0.054396 
0.053777 
0.059595 
0.044920 
0.027466 
0.014285 
0.000000 
0.000000 
0.000000 
0.000000 
0.000000 
0.013016 
0.038968 
0.000000 
0.064474 
0.051725 
0.000000 
0.050101 
0.039105 
0.019594 
0.017659 
0.033902 
0.038325 
0.020337 
0.015943 
0.025061 
0.000000 
0.024149 
0.012766 
0.012534 
0.021889 
0.021343 
0.028931 
0.025768 
0.039113 
0.046599 
0.026613 
0.026848 
0.000000 
0.044269 
0.000000 
0.044468 
0.032097 
0.047771 
0.000000 
0.077699 
0.000000 
0.058100 
0.028719 
0.033629 
0.000000 
0.037584 
0.031448 
0.050942 
0.044609 
0.025294 
0.023922 
0.051383 
0.000000 
0.057998 
0.045982 
0.063886 
0.000000 
0.052866 
0.045393 
0.045867 