# vtk DataFile Version 3.0
results.vtk
ASCII
DATASET RECTILINEAR_GRID
DIMENSIONS 100 100 1
X_COORDINATES 100 double
0.000000 0.010000 0.020000 0.030000 0.040000 0.050000 0.060000 0.070000 0.080000 0.090000 0.100000 0.110000 0.120000 0.130000 0.140000 0.150000 0.160000 0.170000 0.180000 0.190000 0.200000 0.210000 0.220000 0.230000 0.240000 0.250000 0.260000 0.270000 0.280000 0.290000 0.300000 0.310000 0.320000 0.330000 0.340000 0.350000 0.360000 0.370000 0.380000 0.390000 0.400000 0.410000 0.420000 0.430000 0.440000 0.450000 0.460000 0.470000 0.480000 0.490000 0.500000 0.510000 0.520000 0.530000 0.540000 0.550000 0.560000 0.570000 0.580000 0.590000 0.600000 0.610000 0.620000 0.630000 0.640000 0.650000 0.660000 0.670000 0.680000 0.690000 0.700000 0.710000 0.720000 0.730000 0.740000 0.750000 0.760000 0.770000 0.780000 0.790000 0.800000 0.810000 0.820000 0.830000 0.840000 0.850000 0.860000 0.870000 0.880000 0.890000 0.900000 0.910000 0.920000 0.930000 0.940000 0.950000 0.960000 0.970000 0.980000 0.990000 
Y_COORDINATES 100 double
0.000000 0.010000 0.020000 0.030000 0.040000 0.050000 0.060000 0.070000 0.080000 0.090000 0.100000 0.110000 0.120000 0.130000 0.140000 0.150000 0.160000 0.170000 0.180000 0.190000 0.200000 0.210000 0.220000 0.230000 0.240000 0.250000 0.260000 0.270000 0.280000 0.290000 0.300000 0.310000 0.320000 0.330000 0.340000 0.350000 0.360000 0.370000 0.380000 0.390000 0.400000 0.410000 0.420000 0.430000 0.440000 0.450000 0.460000 0.470000 0.480000 0.490000 0.500000 0.510000 0.520000 0.530000 0.540000 0.550000 0.560000 0.570000 0.580000 0.590000 0.600000 0.610000 0.620000 0.630000 0.640000 0.650000 0.660000 0.670000 0.680000 0.690000 0.700000 0.710000 0.720000 0.730000 0.740000 0.750000 0.760000 0.770000 0.780000 0.790000 0.800000 0.810000 0.820000 0.830000 0.840000 0.850000 0.860000 0.870000 0.880000 0.890000 0.900000 0.910000 0.920000 0.930000 0.940000 0.950000 0.960000 0.970000 0.980000 0.990000 
Z_COORDINATES 1 double
0
POINT_DATA 10000 
FIELD FieldData 1 
Concentração 1 10000 double 
0.004965 
0.000000 
0.004432 
0.003970 
0.000000 
0.003341 
0.003228 
0.003136 
0.000000 
0.003027 
0.003302 
0.003461 
0.000000 
0.003033 
0.000000 
0.000000 
0.000000 
0.003836 
0.000000 
0.000000 
0.003691 
0.000000 
0.000000 
0.003950 
0.003771 
0.000000 
0.002971 
0.002691 
0.002604 
0.002571 
0.002684 
0.002992 
0.003170 
0.002981 
0.002632 
0.002486 
0.002450 
0.000000 
0.001954 
0.001960 
0.000000 
0.002700 
0.002850 
0.002421 
0.001380 
0.000000 
0.000930 
0.001865 
0.000000 
0.000000 
0.000000 
0.003620 
0.000000 
0.001258 
0.000000 
0.000000 
0.000000 
0.002575 
0.004273 
0.000000 
0.004670 
0.000000 
0.003567 
0.003264 
0.003057 
0.002900 
0.002901 
0.002950 
0.002804 
0.002501 
0.002097 
0.001751 
0.001546 
0.001531 
0.001626 
0.001664 
0.000000 
0.000764 
0.000000 
0.000000 
0.001116 
0.001982 
0.002811 
0.003477 
0.003795 
0.000000 
0.003205 
0.000000 
0.002732 
0.002844 
0.000000 
0.000000 
0.002315 
0.001859 
0.001772 
0.002010 
0.000000 
0.001920 
0.001233 
0.000000 
0.004748 
0.000000 
0.000000 
0.003790 
0.000000 
0.003109 
0.000000 
0.000000 
0.002941 
0.003083 
0.003399 
0.000000 
0.003179 
0.002911 
0.003144 
0.003675 
0.003975 
0.003817 
0.003474 
0.003341 
0.003520 
0.000000 
0.003913 
0.003920 
0.000000 
0.003474 
0.003082 
0.002809 
0.000000 
0.002574 
0.002615 
0.000000 
0.000000 
0.000000 
0.002627 
0.002505 
0.000000 
0.002203 
0.001936 
0.001944 
0.002246 
0.002631 
0.000000 
0.000000 
0.001417 
0.000000 
0.000953 
0.001780 
0.002629 
0.003452 
0.000000 
0.003517 
0.002507 
0.001265 
0.000000 
0.000000 
0.001080 
0.002858 
0.000000 
0.000000 
0.004525 
0.000000 
0.003387 
0.000000 
0.000000 
0.002971 
0.003018 
0.000000 
0.002862 
0.000000 
0.002188 
0.001880 
0.001690 
0.001672 
0.001753 
0.001758 
0.001430 
0.000779 
0.000000 
0.000492 
0.001249 
0.002009 
0.000000 
0.003410 
0.000000 
0.000000 
0.003125 
0.002874 
0.002819 
0.002876 
0.002899 
0.000000 
0.002285 
0.001921 
0.001846 
0.002022 
0.000000 
0.001929 
0.001434 
0.000895 
0.000000 
0.004064 
0.003770 
0.003387 
0.002963 
0.002598 
0.002490 
0.002619 
0.002895 
0.003290 
0.000000 
0.000000 
0.003054 
0.002657 
0.002861 
0.000000 
0.000000 
0.000000 
0.003345 
0.003090 
0.000000 
0.003454 
0.003704 
0.000000 
0.003784 
0.000000 
0.003298 
0.003027 
0.002759 
0.000000 
0.002348 
0.002516 
0.002741 
0.002756 
0.002631 
0.002580 
0.002485 
0.002214 
0.001976 
0.001966 
0.002158 
0.000000 
0.002564 
0.002312 
0.001659 
0.001025 
0.001175 
0.000000 
0.002125 
0.002862 
0.000000 
0.000000 
0.002474 
0.001354 
0.000000 
0.000000 
0.001404 
0.002995 
0.000000 
0.000000 
0.004111 
0.003444 
0.002956 
0.002803 
0.002903 
0.003102 
0.003241 
0.000000 
0.002911 
0.002603 
0.002314 
0.000000 
0.001924 
0.000000 
0.001962 
0.000000 
0.001549 
0.000847 
0.000000 
0.000660 
0.000000 
0.001939 
0.002628 
0.000000 
0.003336 
0.003196 
0.003034 
0.003063 
0.003128 
0.000000 
0.002819 
0.002566 
0.002316 
0.002154 
0.002090 
0.002114 
0.002115 
0.001901 
0.000000 
0.001261 
0.003448 
0.000000 
0.003286 
0.000000 
0.002681 
0.002276 
0.002201 
0.002549 
0.003149 
0.003728 
0.003979 
0.000000 
0.002906 
0.002396 
0.002522 
0.003066 
0.000000 
0.000000 
0.003175 
0.002902 
0.002938 
0.003215 
0.003554 
0.000000 
0.003692 
0.003517 
0.000000 
0.000000 
0.002655 
0.002192 
0.001929 
0.002135 
0.002510 
0.002721 
0.002741 
0.000000 
0.000000 
0.002353 
0.002164 
0.000000 
0.002098 
0.002197 
0.002318 
0.000000 
0.001853 
0.001444 
0.001297 
0.001286 
0.001348 
0.002109 
0.002768 
0.000000 
0.002482 
0.001674 
0.000703 
0.000000 
0.001337 
0.000000 
0.000000 
0.003929 
0.000000 
0.002951 
0.002567 
0.002520 
0.002799 
0.000000 
0.000000 
0.003257 
0.002874 
0.000000 
0.002317 
0.002143 
0.001962 
0.001889 
0.001963 
0.000000 
0.001679 
0.001022 
0.000000 
0.000759 
0.001254 
0.001746 
0.002358 
0.000000 
0.003083 
0.003064 
0.003157 
0.000000 
0.000000 
0.003311 
0.002882 
0.002617 
0.002554 
0.000000 
0.000000 
0.002327 
0.002183 
0.001921 
0.001627 
0.001415 
0.002839 
0.002862 
0.002919 
0.000000 
0.002684 
0.002352 
0.002370 
0.002922 
0.000000 
0.000000 
0.000000 
0.003734 
0.002825 
0.002255 
0.002279 
0.002660 
0.003046 
0.003192 
0.003080 
0.002929 
0.002963 
0.000000 
0.003557 
0.000000 
0.003538 
0.003264 
0.000000 
0.002721 
0.000000 
0.001707 
0.001311 
0.001787 
0.000000 
0.000000 
0.002805 
0.002800 
0.002701 
0.002555 
0.002478 
0.002369 
0.002194 
0.002132 
0.002252 
0.002338 
0.002169 
0.001885 
0.001574 
0.001112 
0.000000 
0.001453 
0.002231 
0.002586 
0.002502 
0.000000 
0.001067 
0.000000 
0.000886 
0.001977 
0.000000 
0.002986 
0.002814 
0.002493 
0.000000 
0.002318 
0.002651 
0.000000 
0.003414 
0.003256 
0.002825 
0.002459 
0.002248 
0.000000 
0.001869 
0.001739 
0.001824 
0.001979 
0.001888 
0.001533 
0.001120 
0.001167 
0.001336 
0.001654 
0.002201 
0.002787 
0.003108 
0.003250 
0.003487 
0.003826 
0.000000 
0.000000 
0.003031 
0.002858 
0.002934 
0.002964 
0.002790 
0.002558 
0.000000 
0.002081 
0.001834 
0.001689 
0.002651 
0.002693 
0.002815 
0.002934 
0.000000 
0.002682 
0.002824 
0.003491 
0.004331 
0.000000 
0.004581 
0.000000 
0.002815 
0.002244 
0.000000 
0.002423 
0.002726 
0.002998 
0.000000 
0.000000 
0.003217 
0.003441 
0.003721 
0.000000 
0.003535 
0.003079 
0.002645 
0.002219 
0.001753 
0.001146 
0.000000 
0.001367 
0.002106 
0.000000 
0.002607 
0.000000 
0.002686 
0.002747 
0.000000 
0.002776 
0.002502 
0.002322 
0.002426 
0.000000 
0.002618 
0.000000 
0.002205 
0.001772 
0.001310 
0.001568 
0.000000 
0.002302 
0.000000 
0.002209 
0.001362 
0.000000 
0.000000 
0.000921 
0.001474 
0.001895 
0.000000 
0.002048 
0.002024 
0.002116 
0.002418 
0.002899 
0.000000 
0.000000 
0.002882 
0.002495 
0.002241 
0.002029 
0.001778 
0.001612 
0.001725 
0.002002 
0.000000 
0.001993 
0.000000 
0.001579 
0.001582 
0.001789 
0.002267 
0.000000 
0.000000 
0.000000 
0.003855 
0.000000 
0.004034 
0.003553 
0.003116 
0.000000 
0.000000 
0.000000 
0.003067 
0.002743 
0.000000 
0.002297 
0.002174 
0.002134 
0.000000 
0.002910 
0.002985 
0.003049 
0.000000 
0.002953 
0.003208 
0.000000 
0.000000 
0.000000 
0.000000 
0.003709 
0.002794 
0.002239 
0.002107 
0.000000 
0.002459 
0.000000 
0.003123 
0.003345 
0.003562 
0.003808 
0.000000 
0.004175 
0.003918 
0.003329 
0.002647 
0.002078 
0.001675 
0.001373 
0.001140 
0.001545 
0.001904 
0.002108 
0.002182 
0.002272 
0.000000 
0.002687 
0.000000 
0.000000 
0.000000 
0.002487 
0.002551 
0.000000 
0.002925 
0.002991 
0.000000 
0.002475 
0.001978 
0.001677 
0.001636 
0.001889 
0.002286 
0.000000 
0.001827 
0.000892 
0.000000 
0.000000 
0.000000 
0.000829 
0.001404 
0.001697 
0.001832 
0.000000 
0.002210 
0.002612 
0.002993 
0.000000 
0.002988 
0.002654 
0.000000 
0.001995 
0.000000 
0.001447 
0.001612 
0.000000 
0.002231 
0.002239 
0.002043 
0.001857 
0.000000 
0.002042 
0.002444 
0.002952 
0.003361 
0.003670 
0.000000 
0.004239 
0.000000 
0.003545 
0.003131 
0.003196 
0.003520 
0.003613 
0.003316 
0.002908 
0.002602 
0.002405 
0.000000 
0.000000 
0.003090 
0.000000 
0.000000 
0.003056 
0.002916 
0.000000 
0.003182 
0.000000 
0.004542 
0.004708 
0.004318 
0.000000 
0.002795 
0.002255 
0.001993 
0.001955 
0.002119 
0.002489 
0.000000 
0.003400 
0.000000 
0.000000 
0.004408 
0.000000 
0.000000 
0.000000 
0.003086 
0.002418 
0.002067 
0.001934 
0.001858 
0.000000 
0.001936 
0.001926 
0.001874 
0.001872 
0.002011 
0.002327 
0.002700 
0.002801 
0.002567 
0.002321 
0.000000 
0.002616 
0.002947 
0.000000 
0.003271 
0.000000 
0.000000 
0.001614 
0.001093 
0.001227 
0.001946 
0.000000 
0.002269 
0.001662 
0.000888 
0.000000 
0.000000 
0.000000 
0.001030 
0.001602 
0.001845 
0.001990 
0.002208 
0.002510 
0.002796 
0.003030 
0.000000 
0.002860 
0.002449 
0.001945 
0.001437 
0.001028 
0.001405 
0.001865 
0.002203 
0.000000 
0.002157 
0.001995 
0.002046 
0.002303 
0.002669 
0.003027 
0.000000 
0.003530 
0.003887 
0.000000 
0.000000 
0.003598 
0.003213 
0.003275 
0.000000 
0.000000 
0.000000 
0.003067 
0.002673 
0.002379 
0.002234 
0.002188 
0.002982 
0.003017 
0.002997 
0.000000 
0.002529 
0.002445 
0.002755 
0.003464 
0.000000 
0.000000 
0.004055 
0.003496 
0.002871 
0.000000 
0.002020 
0.001850 
0.001911 
0.002210 
0.002682 
0.003236 
0.000000 
0.004145 
0.004478 
0.004868 
0.000000 
0.000000 
0.003519 
0.000000 
0.002643 
0.000000 
0.002589 
0.002454 
0.002294 
0.002139 
0.001946 
0.001766 
0.001761 
0.002010 
0.002346 
0.000000 
0.002190 
0.001899 
0.001877 
0.002228 
0.002771 
0.003252 
0.003417 
0.003141 
0.002410 
0.001363 
0.000000 
0.000000 
0.001563 
0.002403 
0.000000 
0.002408 
0.001821 
0.000966 
0.000000 
0.000000 
0.001035 
0.000000 
0.002135 
0.002327 
0.002555 
0.000000 
0.002813 
0.002985 
0.000000 
0.003156 
0.002745 
0.002091 
0.001310 
0.000000 
0.001334 
0.001932 
0.002228 
0.000000 
0.002218 
0.002099 
0.002177 
0.000000 
0.000000 
0.000000 
0.003125 
0.003248 
0.000000 
0.003921 
0.003973 
0.000000 
0.003361 
0.003332 
0.003548 
0.000000 
0.003375 
0.000000 
0.000000 
0.002388 
0.002106 
0.001919 
0.002772 
0.002785 
0.000000 
0.002417 
0.002104 
0.001984 
0.002226 
0.002865 
0.000000 
0.003870 
0.000000 
0.000000 
0.002961 
0.002586 
0.002258 
0.002072 
0.002065 
0.002229 
0.002544 
0.002958 
0.000000 
0.000000 
0.004204 
0.000000 
0.000000 
0.004388 
0.003673 
0.003184 
0.003123 
0.000000 
0.003388 
0.003198 
0.002893 
0.000000 
0.000000 
0.001959 
0.001800 
0.001903 
0.000000 
0.002055 
0.001769 
0.001389 
0.001202 
0.001702 
0.000000 
0.000000 
0.000000 
0.000000 
0.002461 
0.001407 
0.000000 
0.000777 
0.001727 
0.002476 
0.000000 
0.002963 
0.000000 
0.001783 
0.000765 
0.000000 
0.001044 
0.000000 
0.002583 
0.002948 
0.003225 
0.000000 
0.003045 
0.003069 
0.003388 
0.000000 
0.000000 
0.002655 
0.002061 
0.001752 
0.002228 
0.002511 
0.002525 
0.002453 
0.002348 
0.002263 
0.002296 
0.002495 
0.002768 
0.002947 
0.002983 
0.003005 
0.003268 
0.000000 
0.003877 
0.003754 
0.000000 
0.003350 
0.000000 
0.003224 
0.002977 
0.002804 
0.002720 
0.002568 
0.002266 
0.001975 
0.002768 
0.000000 
0.002582 
0.002292 
0.002017 
0.001818 
0.001839 
0.002237 
0.000000 
0.003411 
0.003444 
0.003225 
0.002928 
0.000000 
0.002568 
0.002506 
0.000000 
0.002583 
0.000000 
0.002760 
0.002994 
0.003301 
0.003730 
0.000000 
0.000000 
0.004197 
0.000000 
0.003430 
0.003563 
0.003998 
0.000000 
0.004071 
0.000000 
0.003003 
0.002606 
0.002264 
0.002027 
0.001965 
0.001893 
0.001630 
0.000000 
0.000790 
0.000000 
0.000935 
0.002082 
0.002778 
0.003048 
0.002959 
0.000000 
0.001768 
0.001209 
0.001488 
0.000000 
0.002559 
0.002912 
0.000000 
0.000000 
0.000000 
0.001012 
0.000000 
0.000826 
0.002107 
0.000000 
0.003861 
0.000000 
0.004103 
0.003588 
0.003418 
0.003764 
0.000000 
0.004002 
0.000000 
0.003125 
0.003097 
0.000000 
0.000000 
0.003129 
0.002797 
0.000000 
0.000000 
0.002668 
0.002791 
0.003027 
0.003215 
0.000000 
0.003146 
0.003293 
0.003649 
0.000000 
0.000000 
0.003529 
0.003356 
0.003213 
0.002988 
0.002796 
0.002844 
0.003031 
0.000000 
0.000000 
0.002345 
0.003584 
0.003510 
0.003307 
0.003031 
0.002756 
0.000000 
0.001694 
0.001550 
0.002742 
0.003545 
0.003554 
0.000000 
0.002629 
0.000000 
0.002608 
0.000000 
0.003098 
0.003331 
0.003300 
0.003113 
0.003151 
0.003376 
0.003752 
0.004174 
0.004338 
0.004183 
0.003906 
0.003803 
0.004117 
0.000000 
0.000000 
0.000000 
0.004254 
0.003451 
0.003049 
0.000000 
0.002549 
0.000000 
0.001948 
0.001068 
0.000723 
0.000398 
0.000000 
0.000000 
0.002207 
0.002804 
0.002845 
0.000000 
0.002482 
0.002104 
0.001966 
0.002341 
0.002795 
0.002924 
0.002944 
0.003103 
0.003093 
0.002305 
0.000834 
0.000000 
0.000000 
0.002361 
0.004212 
0.005438 
0.000000 
0.000000 
0.004786 
0.004375 
0.000000 
0.005350 
0.005554 
0.005302 
0.004926 
0.004790 
0.000000 
0.000000 
0.004115 
0.003564 
0.003332 
0.003510 
0.003774 
0.003938 
0.000000 
0.004485 
0.000000 
0.004231 
0.004255 
0.004430 
0.000000 
0.004033 
0.003636 
0.000000 
0.003334 
0.000000 
0.003312 
0.003759 
0.004189 
0.000000 
0.003657 
0.003026 
0.006807 
0.006637 
0.006266 
0.005860 
0.005403 
0.003809 
0.002077 
0.000000 
0.003893 
0.005641 
0.000000 
0.003606 
0.001887 
0.001673 
0.002247 
0.000000 
0.004159 
0.005291 
0.000000 
0.005158 
0.005253 
0.000000 
0.005876 
0.006011 
0.000000 
0.000000 
0.000000 
0.000000 
0.000000 
0.006329 
0.007605 
0.000000 
0.005861 
0.004698 
0.000000 
0.004367 
0.004175 
0.004074 
0.003227 
0.000000 
0.000000 
0.000000 
0.000000 
0.003464 
0.004720 
0.000000 
0.003450 
0.003174 
0.003045 
0.000000 
0.003347 
0.004390 
0.004990 
0.000000 
0.003908 
0.004051 
0.004459 
0.003422 
0.000000 
0.000000 
0.000000 
0.003769 
0.000000 
0.009048 
0.000000 
0.000000 
0.007675 
0.006863 
0.000000 
0.008728 
0.000000 
0.009664 
0.009086 
0.008233 
0.000000 
0.007268 
0.000000 
0.006034 
0.005670 
0.006250 
0.000000 
0.007225 
0.007779 
0.008357 
0.008352 
0.007681 
0.007639 
0.007567 
0.006887 
0.005684 
0.004479 
0.000000 
0.000000 
0.004365 
0.005382 
0.000000 
0.007820 
0.007458 
0.006195 
0.004844 
0.000000 
0.015270 
0.000000 
0.013482 
0.000000 
0.008517 
0.004977 
0.005291 
0.009997 
0.000000 
0.010820 
0.006396 
0.000000 
0.000000 
0.001886 
0.003679 
0.006949 
0.000000 
0.012065 
0.011627 
0.012530 
0.013309 
0.013911 
0.013477 
0.011207 
0.009262 
0.007680 
0.007303 
0.008425 
0.010764 
0.000000 
0.000000 
0.010648 
0.008910 
0.009202 
0.009653 
0.009547 
0.010147 
0.009785 
0.008103 
0.007929 
0.008895 
0.009922 
0.011838 
0.000000 
0.008763 
0.006269 
0.005926 
0.005971 
0.005796 
0.007085 
0.010028 
0.000000 
0.009530 
0.007439 
0.007727 
0.000000 
0.008791 
0.004764 
0.000000 
0.003522 
0.008020 
0.000000 
0.000000 
0.020239 
0.000000 
0.015218 
0.013539 
0.014728 
0.000000 
0.000000 
0.000000 
0.000000 
0.016692 
0.000000 
0.014617 
0.014460 
0.013927 
0.012868 
0.014181 
0.000000 
0.015936 
0.000000 
0.019055 
0.000000 
0.016827 
0.000000 
0.000000 
0.014986 
0.011753 
0.007982 
0.006268 
0.006563 
0.008441 
0.011923 
0.016345 
0.000000 
0.016876 
0.000000 
0.009739 
0.018590 
0.000000 
0.016665 
0.016232 
0.000000 
0.010347 
0.006795 
0.008807 
0.014785 
0.000000 
0.014607 
0.010194 
0.004610 
0.000000 
0.000000 
0.000000 
0.004701 
0.010663 
0.000000 
0.016753 
0.000000 
0.021989 
0.000000 
0.000000 
0.016907 
0.012903 
0.009235 
0.007956 
0.008953 
0.010425 
0.012862 
0.013206 
0.011632 
0.012192 
0.013775 
0.000000 
0.014665 
0.000000 
0.000000 
0.016142 
0.016624 
0.000000 
0.018573 
0.000000 
0.015241 
0.010518 
0.008500 
0.009767 
0.010206 
0.008741 
0.009460 
0.000000 
0.013563 
0.012252 
0.009840 
0.009185 
0.011231 
0.000000 
0.009341 
0.007204 
0.006939 
0.008349 
0.012380 
0.016727 
0.000000 
0.000000 
0.016349 
0.000000 
0.016108 
0.016958 
0.017733 
0.018772 
0.000000 
0.017086 
0.017593 
0.018241 
0.000000 
0.000000 
0.019245 
0.000000 
0.019798 
0.019310 
0.020611 
0.000000 
0.000000 
0.019477 
0.019219 
0.019527 
0.000000 
0.000000 
0.010326 
0.007220 
0.008350 
0.012601 
0.018200 
0.000000 
0.024895 
0.000000 
0.015713 
0.011601 
0.019472 
0.019294 
0.018095 
0.018669 
0.017375 
0.011558 
0.008575 
0.012111 
0.000000 
0.021072 
0.017743 
0.000000 
0.008804 
0.005062 
0.004046 
0.002321 
0.000000 
0.008344 
0.014433 
0.018435 
0.000000 
0.000000 
0.027284 
0.000000 
0.021897 
0.000000 
0.011851 
0.009453 
0.000000 
0.011014 
0.013071 
0.013755 
0.013202 
0.000000 
0.000000 
0.016534 
0.016685 
0.017165 
0.018593 
0.000000 
0.000000 
0.023384 
0.000000 
0.019772 
0.000000 
0.010969 
0.010643 
0.000000 
0.000000 
0.011575 
0.010487 
0.012876 
0.014402 
0.000000 
0.013916 
0.011556 
0.012056 
0.012955 
0.011777 
0.000000 
0.010495 
0.009228 
0.010506 
0.013156 
0.015288 
0.014602 
0.012530 
0.013105 
0.000000 
0.015085 
0.014411 
0.014590 
0.014480 
0.015047 
0.000000 
0.020607 
0.023414 
0.000000 
0.021997 
0.020134 
0.000000 
0.000000 
0.019932 
0.000000 
0.021571 
0.019943 
0.000000 
0.020938 
0.021318 
0.018636 
0.012295 
0.008806 
0.010727 
0.000000 
0.000000 
0.000000 
0.000000 
0.023120 
0.017333 
0.014573 
0.024068 
0.000000 
0.022992 
0.000000 
0.000000 
0.014705 
0.011181 
0.014688 
0.000000 
0.000000 
0.018595 
0.000000 
0.009944 
0.006863 
0.000000 
0.004156 
0.003131 
0.008301 
0.000000 
0.017869 
0.021861 
0.000000 
0.027563 
0.000000 
0.023976 
0.000000 
0.012920 
0.009934 
0.010153 
0.011662 
0.000000 
0.000000 
0.014305 
0.014338 
0.015243 
0.016807 
0.000000 
0.018399 
0.018928 
0.019947 
0.020746 
0.000000 
0.000000 
0.017881 
0.013006 
0.009748 
0.010403 
0.013701 
0.000000 
0.011606 
0.010117 
0.000000 
0.014425 
0.017812 
0.000000 
0.015465 
0.014459 
0.000000 
0.011785 
0.012131 
0.000000 
0.011858 
0.013089 
0.015287 
0.016077 
0.013579 
0.010574 
0.010163 
0.012063 
0.000000 
0.013232 
0.000000 
0.011896 
0.014062 
0.019588 
0.000000 
0.024868 
0.000000 
0.000000 
0.018228 
0.017605 
0.016705 
0.017517 
0.020637 
0.022161 
0.023516 
0.025475 
0.026009 
0.000000 
0.000000 
0.016757 
0.012054 
0.012356 
0.014638 
0.017145 
0.020865 
0.000000 
0.000000 
0.019945 
0.000000 
0.000000 
0.000000 
0.025655 
0.000000 
0.000000 
0.017618 
0.014525 
0.016822 
0.019905 
0.000000 
0.015794 
0.012353 
0.007870 
0.004467 
0.003838 
0.002271 
0.000000 
0.007838 
0.013395 
0.000000 
0.018589 
0.023073 
0.000000 
0.025162 
0.000000 
0.018621 
0.013410 
0.011741 
0.011728 
0.012597 
0.015228 
0.017340 
0.016266 
0.015620 
0.016009 
0.017910 
0.000000 
0.020001 
0.000000 
0.000000 
0.017387 
0.018673 
0.019441 
0.016615 
0.013012 
0.011193 
0.011893 
0.013324 
0.013372 
0.010372 
0.008366 
0.009496 
0.012251 
0.000000 
0.000000 
0.017498 
0.000000 
0.012383 
0.009473 
0.010210 
0.012672 
0.013956 
0.000000 
0.000000 
0.000000 
0.018845 
0.013627 
0.010145 
0.009944 
0.011307 
0.011573 
0.010576 
0.010418 
0.014700 
0.000000 
0.024626 
0.000000 
0.021691 
0.018162 
0.016000 
0.000000 
0.015648 
0.017976 
0.000000 
0.000000 
0.000000 
0.000000 
0.000000 
0.031268 
0.000000 
0.022742 
0.017240 
0.000000 
0.013792 
0.012584 
0.014482 
0.018752 
0.021004 
0.021003 
0.021558 
0.024443 
0.023924 
0.023994 
0.000000 
0.024176 
0.020266 
0.019393 
0.000000 
0.019702 
0.017007 
0.014305 
0.012221 
0.007778 
0.000000 
0.000000 
0.000000 
0.005039 
0.010662 
0.014090 
0.014027 
0.014710 
0.000000 
0.000000 
0.020708 
0.000000 
0.017682 
0.015424 
0.000000 
0.018050 
0.017903 
0.018874 
0.000000 
0.022047 
0.000000 
0.019782 
0.000000 
0.018314 
0.000000 
0.017244 
0.015715 
0.014645 
0.016588 
0.000000 
0.000000 
0.016873 
0.016565 
0.000000 
0.017823 
0.016914 
0.013112 
0.009025 
0.007793 
0.008880 
0.012694 
0.016200 
0.016812 
0.014910 
0.010325 
0.007397 
0.008818 
0.000000 
0.014220 
0.017037 
0.021329 
0.000000 
0.000000 
0.000000 
0.013618 
0.011845 
0.012038 
0.000000 
0.009897 
0.010662 
0.016386 
0.000000 
0.025181 
0.000000 
0.019429 
0.017155 
0.016204 
0.015896 
0.015826 
0.000000 
0.021282 
0.024839 
0.000000 
0.000000 
0.000000 
0.034431 
0.000000 
0.000000 
0.022274 
0.017085 
0.000000 
0.010953 
0.012826 
0.018123 
0.000000 
0.000000 
0.000000 
0.000000 
0.000000 
0.021179 
0.000000 
0.023549 
0.000000 
0.000000 
0.000000 
0.000000 
0.017024 
0.017417 
0.000000 
0.013870 
0.007679 
0.005463 
0.006648 
0.010090 
0.000000 
0.000000 
0.012755 
0.010121 
0.011736 
0.013707 
0.014355 
0.015395 
0.000000 
0.017000 
0.021716 
0.000000 
0.000000 
0.023130 
0.000000 
0.000000 
0.024585 
0.000000 
0.016729 
0.013408 
0.013505 
0.014785 
0.014842 
0.014209 
0.000000 
0.015718 
0.016647 
0.000000 
0.000000 
0.021679 
0.000000 
0.000000 
0.000000 
0.012399 
0.009110 
0.008062 
0.010525 
0.015076 
0.000000 
0.000000 
0.009503 
0.006706 
0.008510 
0.012471 
0.015358 
0.016688 
0.018635 
0.000000 
0.022533 
0.020114 
0.018906 
0.018283 
0.016561 
0.013178 
0.010860 
0.012882 
0.018716 
0.000000 
0.000000 
0.021576 
0.018787 
0.000000 
0.000000 
0.018765 
0.017235 
0.016817 
0.000000 
0.019411 
0.025423 
0.000000 
0.000000 
0.000000 
0.033067 
0.000000 
0.000000 
0.016864 
0.011539 
0.010239 
0.014274 
0.000000 
0.021100 
0.019346 
0.017857 
0.012931 
0.013190 
0.015288 
0.000000 
0.021449 
0.020461 
0.017964 
0.016059 
0.014965 
0.016304 
0.000000 
0.023664 
0.000000 
0.013315 
0.009321 
0.000000 
0.011888 
0.014727 
0.000000 
0.010361 
0.005893 
0.007135 
0.009902 
0.011666 
0.012435 
0.013975 
0.016930 
0.000000 
0.000000 
0.000000 
0.022467 
0.024614 
0.000000 
0.024040 
0.000000 
0.012669 
0.008144 
0.009907 
0.000000 
0.000000 
0.014664 
0.012760 
0.011641 
0.012658 
0.015619 
0.019257 
0.021791 
0.023913 
0.000000 
0.019705 
0.013854 
0.000000 
0.008652 
0.009995 
0.000000 
0.015895 
0.012763 
0.008152 
0.007185 
0.010579 
0.015433 
0.000000 
0.000000 
0.016047 
0.017793 
0.000000 
0.022274 
0.000000 
0.000000 
0.000000 
0.018060 
0.015113 
0.017574 
0.000000 
0.020933 
0.019059 
0.000000 
0.017604 
0.018827 
0.020047 
0.000000 
0.000000 
0.015259 
0.014229 
0.014418 
0.018409 
0.000000 
0.029886 
0.031180 
0.000000 
0.028024 
0.000000 
0.014698 
0.009362 
0.010219 
0.016704 
0.000000 
0.022618 
0.019109 
0.016121 
0.005215 
0.005764 
0.008318 
0.015117 
0.000000 
0.000000 
0.014264 
0.011123 
0.011281 
0.014712 
0.000000 
0.000000 
0.000000 
0.015877 
0.010103 
0.009821 
0.011162 
0.012382 
0.012216 
0.007190 
0.000000 
0.006015 
0.011266 
0.000000 
0.013867 
0.014634 
0.016308 
0.019324 
0.000000 
0.019574 
0.017842 
0.000000 
0.023459 
0.000000 
0.014775 
0.007684 
0.000000 
0.004850 
0.010427 
0.014057 
0.000000 
0.012009 
0.010926 
0.011844 
0.014158 
0.000000 
0.000000 
0.000000 
0.020647 
0.000000 
0.012385 
0.009692 
0.008005 
0.008350 
0.011294 
0.000000 
0.010448 
0.007309 
0.008087 
0.000000 
0.017856 
0.000000 
0.017032 
0.013019 
0.013981 
0.018288 
0.022768 
0.000000 
0.000000 
0.000000 
0.022978 
0.020567 
0.000000 
0.000000 
0.017692 
0.014024 
0.014581 
0.016740 
0.000000 
0.017776 
0.000000 
0.016554 
0.014247 
0.014250 
0.013576 
0.014163 
0.018840 
0.000000 
0.000000 
0.000000 
0.022826 
0.000000 
0.010746 
0.006542 
0.009389 
0.000000 
0.000000 
0.000000 
0.000000 
0.019885 
0.000000 
0.000000 
0.000000 
0.011348 
0.018388 
0.018545 
0.013391 
0.010619 
0.011407 
0.013548 
0.018781 
0.023841 
0.000000 
0.016290 
0.010111 
0.009324 
0.000000 
0.011087 
0.000000 
0.006293 
0.003366 
0.007462 
0.000000 
0.017430 
0.017033 
0.000000 
0.000000 
0.015224 
0.015071 
0.013412 
0.012992 
0.016738 
0.000000 
0.016470 
0.011103 
0.006020 
0.000000 
0.000000 
0.007936 
0.012971 
0.014447 
0.013646 
0.013594 
0.000000 
0.013311 
0.014489 
0.015148 
0.015675 
0.015614 
0.013558 
0.011147 
0.010174 
0.009173 
0.007766 
0.008373 
0.009602 
0.008724 
0.006447 
0.007001 
0.011467 
0.000000 
0.018751 
0.015640 
0.011687 
0.012814 
0.000000 
0.021625 
0.000000 
0.031384 
0.000000 
0.025079 
0.000000 
0.022011 
0.000000 
0.014468 
0.011051 
0.012830 
0.000000 
0.015956 
0.013630 
0.013667 
0.014075 
0.014849 
0.000000 
0.000000 
0.012469 
0.013648 
0.017740 
0.019972 
0.000000 
0.014466 
0.009414 
0.004780 
0.000000 
0.005051 
0.012386 
0.019186 
0.022801 
0.023205 
0.000000 
0.006384 
0.006025 
0.006960 
0.013324 
0.000000 
0.000000 
0.015880 
0.013986 
0.000000 
0.015722 
0.018904 
0.023441 
0.000000 
0.017526 
0.011514 
0.009414 
0.009243 
0.008698 
0.007070 
0.003292 
0.000000 
0.006673 
0.014111 
0.000000 
0.019297 
0.017533 
0.015007 
0.012974 
0.013140 
0.012432 
0.011621 
0.014079 
0.000000 
0.014076 
0.011289 
0.008962 
0.005564 
0.005484 
0.010521 
0.000000 
0.018725 
0.018336 
0.000000 
0.015700 
0.014271 
0.013783 
0.012343 
0.012548 
0.000000 
0.013430 
0.013680 
0.014584 
0.000000 
0.009900 
0.008081 
0.008219 
0.000000 
0.005499 
0.004406 
0.006960 
0.012153 
0.000000 
0.000000 
0.010847 
0.011423 
0.000000 
0.018160 
0.022947 
0.000000 
0.000000 
0.023511 
0.000000 
0.018496 
0.015381 
0.012210 
0.009926 
0.011723 
0.000000 
0.014103 
0.010751 
0.010299 
0.000000 
0.013839 
0.000000 
0.014209 
0.010309 
0.010177 
0.000000 
0.013064 
0.011102 
0.005952 
0.000000 
0.000000 
0.000000 
0.000000 
0.008565 
0.015988 
0.000000 
0.000000 
0.019261 
0.000000 
0.012257 
0.012087 
0.015305 
0.000000 
0.000000 
0.016541 
0.016095 
0.000000 
0.018017 
0.000000 
0.000000 
0.000000 
0.020970 
0.016515 
0.013082 
0.010536 
0.008774 
0.005612 
0.000000 
0.000000 
0.006549 
0.013511 
0.000000 
0.000000 
0.019752 
0.016470 
0.014110 
0.000000 
0.000000 
0.013376 
0.014014 
0.015124 
0.014636 
0.014904 
0.000000 
0.010091 
0.009264 
0.013988 
0.020164 
0.000000 
0.000000 
0.020725 
0.019111 
0.018892 
0.000000 
0.013794 
0.012591 
0.014311 
0.014702 
0.000000 
0.000000 
0.017751 
0.012693 
0.009337 
0.007419 
0.005998 
0.002883 
0.000000 
0.000000 
0.005487 
0.009598 
0.010049 
0.008008 
0.008378 
0.011233 
0.013382 
0.000000 
0.019561 
0.020409 
0.019258 
0.000000 
0.014750 
0.012723 
0.000000 
0.010534 
0.010933 
0.012571 
0.000000 
0.008458 
0.007240 
0.008276 
0.010172 
0.012782 
0.011867 
0.008562 
0.008004 
0.009975 
0.009949 
0.007294 
0.000000 
0.000000 
0.000000 
0.000000 
0.000000 
0.007517 
0.000000 
0.017212 
0.016808 
0.014224 
0.016389 
0.000000 
0.017017 
0.016719 
0.016741 
0.015695 
0.013815 
0.000000 
0.016367 
0.017250 
0.018349 
0.021174 
0.000000 
0.024582 
0.000000 
0.000000 
0.014148 
0.000000 
0.007889 
0.005362 
0.006172 
0.008977 
0.013369 
0.017724 
0.020580 
0.000000 
0.000000 
0.014935 
0.015264 
0.016455 
0.015308 
0.000000 
0.017309 
0.017517 
0.000000 
0.000000 
0.011206 
0.010328 
0.000000 
0.000000 
0.000000 
0.021084 
0.000000 
0.023157 
0.000000 
0.000000 
0.016117 
0.014274 
0.000000 
0.014644 
0.016390 
0.019859 
0.000000 
0.014814 
0.000000 
0.007589 
0.004909 
0.000000 
0.000000 
0.000000 
0.000000 
0.005828 
0.007855 
0.007027 
0.007532 
0.009389 
0.009945 
0.011837 
0.014282 
0.000000 
0.016011 
0.015278 
0.012224 
0.011900 
0.013786 
0.012942 
0.012389 
0.010973 
0.008849 
0.006533 
0.005884 
0.006423 
0.008658 
0.012118 
0.000000 
0.009116 
0.008852 
0.011944 
0.013437 
0.011460 
0.007885 
0.006722 
0.004604 
0.000000 
0.000000 
0.007535 
0.013181 
0.014993 
0.000000 
0.011644 
0.016406 
0.018830 
0.000000 
0.000000 
0.015801 
0.013350 
0.011540 
0.012441 
0.015105 
0.000000 
0.018271 
0.019274 
0.023104 
0.000000 
0.000000 
0.021122 
0.015809 
0.013558 
0.010213 
0.008976 
0.000000 
0.012784 
0.000000 
0.017736 
0.019897 
0.000000 
0.018737 
0.015250 
0.016411 
0.000000 
0.017671 
0.018355 
0.000000 
0.000000 
0.016061 
0.012107 
0.007118 
0.006268 
0.008828 
0.011435 
0.012629 
0.014468 
0.019097 
0.000000 
0.000000 
0.021561 
0.017228 
0.015571 
0.000000 
0.013148 
0.013990 
0.000000 
0.000000 
0.013644 
0.009926 
0.007874 
0.006739 
0.003520 
0.000000 
0.000000 
0.003330 
0.006762 
0.000000 
0.008926 
0.009993 
0.000000 
0.009824 
0.009960 
0.012257 
0.014375 
0.015479 
0.000000 
0.012965 
0.014680 
0.000000 
0.019278 
0.000000 
0.013794 
0.009324 
0.007823 
0.008547 
0.008455 
0.010247 
0.000000 
0.013299 
0.010293 
0.011156 
0.000000 
0.000000 
0.000000 
0.015040 
0.000000 
0.012090 
0.008650 
0.007925 
0.011077 
0.000000 
0.015239 
0.013501 
0.011541 
0.014959 
0.018236 
0.000000 
0.019384 
0.014630 
0.000000 
0.011436 
0.011353 
0.013976 
0.000000 
0.020770 
0.020979 
0.022818 
0.025331 
0.000000 
0.020665 
0.017501 
0.000000 
0.013042 
0.010999 
0.011733 
0.013272 
0.014778 
0.000000 
0.016737 
0.000000 
0.016563 
0.015892 
0.018222 
0.000000 
0.018645 
0.018198 
0.018129 
0.015343 
0.011419 
0.006820 
0.000000 
0.000000 
0.000000 
0.000000 
0.000000 
0.006245 
0.013424 
0.000000 
0.020455 
0.018257 
0.000000 
0.015186 
0.012852 
0.009397 
0.008908 
0.011558 
0.012318 
0.009358 
0.007831 
0.008658 
0.000000 
0.007686 
0.005354 
0.005127 
0.006849 
0.008154 
0.009601 
0.010131 
0.012137 
0.012832 
0.010208 
0.009562 
0.000000 
0.012834 
0.000000 
0.014133 
0.013867 
0.017363 
0.000000 
0.023645 
0.000000 
0.017553 
0.012191 
0.011621 
0.000000 
0.012471 
0.012533 
0.015186 
0.014412 
0.011099 
0.010799 
0.015400 
0.000000 
0.018152 
0.016861 
0.018143 
0.000000 
0.015725 
0.014686 
0.015034 