# vtk DataFile Version 3.0
results.vtk
ASCII
DATASET RECTILINEAR_GRID
DIMENSIONS 100 100 1
X_COORDINATES 100 double
0.000000 0.010000 0.020000 0.030000 0.040000 0.050000 0.060000 0.070000 0.080000 0.090000 0.100000 0.110000 0.120000 0.130000 0.140000 0.150000 0.160000 0.170000 0.180000 0.190000 0.200000 0.210000 0.220000 0.230000 0.240000 0.250000 0.260000 0.270000 0.280000 0.290000 0.300000 0.310000 0.320000 0.330000 0.340000 0.350000 0.360000 0.370000 0.380000 0.390000 0.400000 0.410000 0.420000 0.430000 0.440000 0.450000 0.460000 0.470000 0.480000 0.490000 0.500000 0.510000 0.520000 0.530000 0.540000 0.550000 0.560000 0.570000 0.580000 0.590000 0.600000 0.610000 0.620000 0.630000 0.640000 0.650000 0.660000 0.670000 0.680000 0.690000 0.700000 0.710000 0.720000 0.730000 0.740000 0.750000 0.760000 0.770000 0.780000 0.790000 0.800000 0.810000 0.820000 0.830000 0.840000 0.850000 0.860000 0.870000 0.880000 0.890000 0.900000 0.910000 0.920000 0.930000 0.940000 0.950000 0.960000 0.970000 0.980000 0.990000 
Y_COORDINATES 100 double
0.000000 0.010000 0.020000 0.030000 0.040000 0.050000 0.060000 0.070000 0.080000 0.090000 0.100000 0.110000 0.120000 0.130000 0.140000 0.150000 0.160000 0.170000 0.180000 0.190000 0.200000 0.210000 0.220000 0.230000 0.240000 0.250000 0.260000 0.270000 0.280000 0.290000 0.300000 0.310000 0.320000 0.330000 0.340000 0.350000 0.360000 0.370000 0.380000 0.390000 0.400000 0.410000 0.420000 0.430000 0.440000 0.450000 0.460000 0.470000 0.480000 0.490000 0.500000 0.510000 0.520000 0.530000 0.540000 0.550000 0.560000 0.570000 0.580000 0.590000 0.600000 0.610000 0.620000 0.630000 0.640000 0.650000 0.660000 0.670000 0.680000 0.690000 0.700000 0.710000 0.720000 0.730000 0.740000 0.750000 0.760000 0.770000 0.780000 0.790000 0.800000 0.810000 0.820000 0.830000 0.840000 0.850000 0.860000 0.870000 0.880000 0.890000 0.900000 0.910000 0.920000 0.930000 0.940000 0.950000 0.960000 0.970000 0.980000 0.990000 
Z_COORDINATES 1 double
0
POINT_DATA 10000 
FIELD FieldData 1 
Concentração 1 10000 double 
0.128951 
0.000000 
0.126214 
0.090110 
0.000000 
0.082629 
0.099067 
0.112849 
0.000000 
0.047056 
0.054743 
0.108841 
0.000000 
0.072871 
0.000000 
0.000000 
0.000000 
0.092722 
0.000000 
0.000000 
0.107039 
0.000000 
0.000000 
0.085400 
0.106306 
0.000000 
0.047006 
0.034899 
0.066225 
0.041616 
0.038734 
0.088527 
0.105579 
0.087843 
0.035568 
0.037587 
0.091002 
0.000000 
0.041251 
0.039542 
0.000000 
0.070175 
0.093503 
0.085355 
0.028299 
0.000000 
0.010865 
0.049115 
0.000000 
0.000000 
0.000000 
0.107839 
0.000000 
0.031296 
0.000000 
0.000000 
0.000000 
0.042103 
0.132588 
0.000000 
0.118710 
0.000000 
0.082905 
0.093334 
0.085073 
0.036985 
0.037036 
0.077451 
0.052592 
0.067150 
0.029751 
0.017738 
0.006990 
0.014321 
0.016129 
0.044119 
0.000000 
0.029209 
0.000000 
0.000000 
0.016649 
0.030057 
0.071531 
0.072028 
0.122347 
0.000000 
0.088012 
0.000000 
0.046256 
0.060052 
0.000000 
0.000000 
0.059539 
0.014938 
0.014100 
0.053408 
0.000000 
0.057392 
0.022676 
0.000000 
0.135510 
0.000000 
0.000000 
0.093402 
0.000000 
0.083728 
0.000000 
0.000000 
0.072970 
0.043063 
0.083649 
0.000000 
0.081268 
0.039130 
0.062752 
0.101053 
0.109050 
0.082524 
0.065667 
0.066522 
0.091442 
0.000000 
0.098070 
0.095385 
0.000000 
0.098896 
0.047563 
0.049726 
0.000000 
0.070513 
0.058173 
0.000000 
0.000000 
0.000000 
0.049825 
0.050758 
0.000000 
0.064866 
0.024217 
0.024852 
0.051817 
0.081191 
0.000000 
0.000000 
0.040194 
0.000000 
0.014160 
0.045732 
0.064931 
0.102119 
0.000000 
0.106356 
0.056075 
0.016565 
0.000000 
0.000000 
0.012213 
0.064254 
0.000000 
0.000000 
0.116029 
0.000000 
0.084983 
0.000000 
0.000000 
0.057491 
0.061543 
0.000000 
0.079001 
0.000000 
0.048108 
0.040637 
0.024992 
0.035828 
0.029029 
0.050487 
0.043891 
0.013715 
0.000000 
0.011825 
0.037017 
0.047777 
0.000000 
0.109432 
0.000000 
0.000000 
0.065787 
0.051632 
0.038828 
0.057745 
0.086014 
0.000000 
0.049261 
0.019112 
0.018761 
0.047062 
0.000000 
0.055748 
0.039414 
0.014811 
0.000000 
0.116145 
0.080517 
0.069091 
0.057559 
0.032644 
0.046585 
0.049180 
0.038125 
0.058031 
0.000000 
0.000000 
0.067750 
0.025210 
0.051233 
0.000000 
0.000000 
0.000000 
0.067607 
0.052938 
0.000000 
0.084692 
0.076724 
0.000000 
0.109996 
0.000000 
0.086532 
0.071178 
0.081542 
0.000000 
0.048129 
0.054270 
0.064382 
0.057447 
0.035236 
0.057886 
0.074740 
0.035310 
0.021654 
0.039927 
0.050690 
0.000000 
0.084247 
0.078594 
0.027983 
0.010089 
0.030328 
0.000000 
0.048226 
0.067517 
0.000000 
0.000000 
0.059658 
0.018262 
0.000000 
0.000000 
0.023743 
0.094084 
0.000000 
0.000000 
0.101324 
0.064586 
0.039646 
0.051624 
0.061010 
0.070897 
0.089473 
0.000000 
0.069264 
0.075340 
0.057608 
0.000000 
0.062857 
0.000000 
0.071629 
0.000000 
0.048389 
0.009870 
0.000000 
0.028813 
0.000000 
0.050259 
0.080603 
0.000000 
0.090129 
0.062160 
0.037135 
0.060857 
0.083160 
0.000000 
0.056517 
0.049938 
0.031600 
0.045728 
0.045281 
0.032275 
0.052257 
0.046970 
0.000000 
0.035819 
0.097803 
0.000000 
0.084014 
0.000000 
0.057005 
0.017163 
0.013423 
0.025807 
0.055133 
0.082620 
0.122346 
0.000000 
0.053033 
0.016874 
0.030581 
0.083928 
0.000000 
0.000000 
0.063131 
0.034776 
0.050414 
0.061415 
0.074939 
0.000000 
0.083615 
0.091979 
0.000000 
0.000000 
0.085505 
0.051638 
0.021256 
0.026862 
0.055988 
0.063965 
0.058098 
0.000000 
0.000000 
0.048745 
0.045099 
0.000000 
0.045152 
0.045888 
0.053546 
0.000000 
0.038013 
0.015601 
0.015595 
0.030745 
0.016836 
0.029054 
0.085022 
0.000000 
0.063444 
0.041855 
0.012861 
0.000000 
0.040111 
0.000000 
0.000000 
0.130096 
0.000000 
0.056069 
0.044047 
0.032465 
0.059785 
0.000000 
0.000000 
0.089708 
0.057430 
0.000000 
0.056920 
0.068427 
0.038015 
0.043215 
0.054145 
0.000000 
0.048653 
0.011845 
0.000000 
0.013084 
0.031940 
0.023173 
0.053192 
0.000000 
0.062842 
0.035891 
0.049974 
0.000000 
0.000000 
0.108166 
0.040659 
0.029868 
0.050317 
0.000000 
0.000000 
0.053360 
0.052153 
0.029945 
0.034313 
0.015650 
0.039906 
0.048470 
0.059481 
0.000000 
0.078255 
0.025599 
0.015762 
0.050549 
0.000000 
0.000000 
0.000000 
0.110932 
0.037668 
0.019658 
0.038571 
0.042185 
0.062351 
0.071761 
0.063105 
0.054666 
0.054051 
0.000000 
0.092944 
0.000000 
0.070582 
0.064050 
0.000000 
0.100919 
0.000000 
0.040279 
0.016088 
0.041218 
0.000000 
0.000000 
0.073851 
0.082929 
0.064286 
0.036716 
0.053854 
0.053178 
0.026546 
0.017765 
0.031451 
0.069373 
0.038825 
0.038382 
0.021282 
0.011224 
0.000000 
0.018018 
0.053914 
0.068344 
0.078444 
0.000000 
0.033916 
0.000000 
0.019839 
0.073912 
0.000000 
0.077506 
0.077515 
0.056325 
0.000000 
0.046776 
0.056236 
0.000000 
0.117040 
0.077478 
0.037464 
0.044085 
0.051076 
0.000000 
0.041598 
0.018854 
0.022656 
0.054244 
0.048642 
0.027281 
0.032103 
0.016375 
0.014808 
0.009118 
0.030229 
0.080241 
0.070269 
0.056880 
0.055541 
0.115443 
0.000000 
0.000000 
0.057060 
0.055630 
0.069593 
0.087267 
0.065420 
0.058939 
0.000000 
0.047194 
0.023822 
0.014926 
0.042129 
0.032338 
0.037085 
0.081625 
0.000000 
0.053964 
0.032075 
0.072861 
0.132700 
0.000000 
0.152342 
0.000000 
0.048013 
0.040819 
0.000000 
0.066388 
0.047247 
0.080456 
0.000000 
0.000000 
0.062406 
0.067435 
0.092049 
0.000000 
0.062565 
0.035931 
0.045710 
0.033477 
0.035319 
0.013846 
0.000000 
0.026112 
0.073684 
0.000000 
0.078272 
0.000000 
0.077477 
0.065220 
0.000000 
0.089595 
0.054393 
0.028288 
0.053870 
0.000000 
0.078232 
0.000000 
0.065627 
0.028463 
0.017781 
0.034358 
0.000000 
0.071303 
0.000000 
0.095478 
0.032175 
0.000000 
0.000000 
0.020481 
0.044542 
0.047800 
0.000000 
0.047390 
0.048608 
0.046152 
0.036735 
0.079686 
0.000000 
0.000000 
0.060733 
0.033376 
0.048196 
0.054240 
0.044487 
0.018958 
0.023686 
0.067315 
0.000000 
0.068755 
0.000000 
0.042715 
0.037647 
0.021346 
0.043708 
0.000000 
0.000000 
0.000000 
0.107599 
0.000000 
0.121777 
0.074159 
0.056465 
0.000000 
0.000000 
0.000000 
0.063488 
0.055749 
0.000000 
0.056387 
0.053183 
0.056428 
0.000000 
0.076696 
0.062912 
0.072128 
0.000000 
0.081361 
0.070011 
0.000000 
0.000000 
0.000000 
0.000000 
0.104073 
0.038064 
0.030282 
0.062769 
0.000000 
0.067688 
0.000000 
0.104367 
0.077435 
0.075330 
0.089347 
0.000000 
0.116848 
0.084363 
0.059924 
0.028274 
0.015394 
0.011324 
0.010995 
0.014532 
0.035189 
0.032879 
0.044869 
0.034345 
0.064355 
0.000000 
0.080963 
0.000000 
0.000000 
0.000000 
0.057702 
0.078565 
0.000000 
0.074935 
0.101170 
0.000000 
0.076838 
0.050667 
0.027251 
0.036159 
0.033623 
0.076001 
0.000000 
0.052553 
0.010881 
0.000000 
0.000000 
0.000000 
0.013719 
0.034579 
0.027697 
0.040988 
0.000000 
0.039328 
0.041407 
0.080559 
0.000000 
0.086107 
0.055932 
0.000000 
0.065864 
0.000000 
0.037119 
0.038766 
0.000000 
0.075582 
0.065836 
0.053057 
0.045040 
0.000000 
0.041943 
0.034636 
0.067038 
0.092950 
0.093778 
0.000000 
0.139943 
0.000000 
0.065865 
0.033288 
0.061554 
0.100170 
0.104707 
0.067604 
0.041948 
0.054560 
0.054039 
0.000000 
0.000000 
0.102665 
0.000000 
0.000000 
0.089049 
0.085581 
0.000000 
0.079899 
0.000000 
0.138273 
0.122393 
0.103816 
0.000000 
0.051005 
0.042859 
0.031393 
0.038079 
0.031928 
0.066094 
0.000000 
0.091259 
0.000000 
0.000000 
0.115846 
0.000000 
0.000000 
0.000000 
0.065129 
0.043161 
0.028575 
0.044490 
0.044793 
0.000000 
0.037314 
0.023188 
0.016929 
0.021844 
0.036403 
0.034048 
0.070066 
0.088325 
0.063511 
0.049775 
0.000000 
0.075331 
0.064663 
0.000000 
0.108652 
0.000000 
0.000000 
0.039138 
0.014270 
0.014004 
0.051509 
0.000000 
0.077908 
0.025772 
0.010063 
0.000000 
0.000000 
0.000000 
0.020080 
0.040942 
0.028461 
0.036434 
0.028721 
0.046001 
0.044063 
0.082958 
0.000000 
0.065720 
0.050371 
0.029211 
0.033003 
0.014206 
0.016628 
0.041998 
0.059837 
0.000000 
0.051905 
0.026790 
0.045972 
0.056747 
0.064464 
0.083399 
0.000000 
0.073404 
0.111412 
0.000000 
0.000000 
0.084759 
0.039444 
0.056878 
0.000000 
0.000000 
0.000000 
0.083618 
0.058763 
0.033676 
0.048296 
0.055680 
0.045970 
0.071182 
0.103806 
0.000000 
0.054120 
0.044149 
0.038117 
0.091103 
0.000000 
0.000000 
0.102722 
0.089312 
0.060286 
0.000000 
0.036993 
0.017254 
0.015026 
0.025227 
0.051502 
0.073572 
0.000000 
0.121376 
0.079681 
0.138304 
0.000000 
0.000000 
0.090151 
0.000000 
0.073429 
0.000000 
0.062072 
0.047129 
0.034587 
0.047200 
0.043241 
0.018570 
0.013066 
0.024730 
0.069822 
0.000000 
0.049581 
0.024447 
0.036993 
0.035971 
0.061877 
0.091494 
0.088281 
0.092849 
0.062695 
0.019307 
0.000000 
0.000000 
0.029200 
0.080137 
0.000000 
0.064474 
0.048770 
0.020895 
0.000000 
0.000000 
0.041022 
0.000000 
0.051496 
0.028798 
0.052865 
0.000000 
0.054836 
0.060799 
0.000000 
0.092079 
0.061320 
0.026697 
0.011207 
0.000000 
0.012808 
0.024815 
0.048262 
0.000000 
0.052046 
0.027125 
0.046860 
0.000000 
0.000000 
0.000000 
0.081667 
0.060171 
0.000000 
0.115701 
0.107178 
0.000000 
0.072328 
0.053693 
0.108719 
0.000000 
0.111396 
0.000000 
0.000000 
0.048753 
0.025073 
0.015354 
0.043253 
0.073900 
0.000000 
0.065360 
0.024725 
0.017983 
0.019331 
0.064360 
0.000000 
0.120944 
0.000000 
0.000000 
0.066891 
0.073739 
0.032488 
0.025387 
0.036468 
0.029118 
0.049407 
0.065252 
0.000000 
0.000000 
0.097563 
0.000000 
0.000000 
0.115497 
0.070984 
0.056886 
0.062499 
0.000000 
0.088071 
0.055387 
0.074392 
0.000000 
0.000000 
0.043925 
0.019102 
0.040295 
0.000000 
0.072251 
0.048881 
0.018336 
0.015170 
0.040345 
0.000000 
0.000000 
0.000000 
0.000000 
0.077059 
0.022624 
0.000000 
0.012560 
0.041455 
0.064205 
0.000000 
0.114358 
0.000000 
0.073531 
0.019576 
0.000000 
0.042165 
0.000000 
0.075841 
0.045294 
0.084197 
0.000000 
0.052182 
0.037062 
0.091712 
0.000000 
0.000000 
0.069115 
0.023186 
0.020448 
0.051465 
0.054362 
0.035331 
0.053443 
0.056132 
0.047512 
0.031368 
0.049884 
0.062894 
0.063122 
0.060363 
0.038960 
0.070249 
0.000000 
0.106509 
0.113230 
0.000000 
0.077586 
0.000000 
0.080592 
0.044542 
0.052025 
0.059172 
0.061916 
0.047756 
0.019024 
0.065845 
0.000000 
0.064669 
0.027632 
0.019121 
0.032654 
0.021518 
0.047763 
0.000000 
0.070283 
0.072532 
0.084534 
0.070682 
0.000000 
0.064415 
0.074822 
0.000000 
0.066103 
0.000000 
0.050664 
0.059019 
0.061823 
0.068990 
0.000000 
0.000000 
0.100920 
0.000000 
0.055763 
0.053033 
0.114487 
0.000000 
0.116407 
0.000000 
0.079528 
0.065775 
0.049571 
0.029299 
0.045308 
0.050096 
0.049579 
0.000000 
0.029401 
0.000000 
0.014517 
0.047980 
0.065843 
0.076251 
0.104467 
0.000000 
0.041680 
0.014735 
0.031861 
0.000000 
0.058372 
0.083247 
0.000000 
0.000000 
0.000000 
0.037600 
0.000000 
0.019539 
0.068654 
0.000000 
0.085744 
0.000000 
0.117147 
0.042764 
0.033528 
0.088612 
0.000000 
0.111356 
0.000000 
0.045678 
0.059567 
0.000000 
0.000000 
0.066250 
0.054978 
0.000000 
0.000000 
0.048660 
0.032376 
0.051901 
0.063275 
0.000000 
0.049496 
0.038433 
0.083817 
0.000000 
0.000000 
0.087630 
0.072510 
0.068596 
0.055693 
0.025487 
0.028513 
0.059991 
0.000000 
0.000000 
0.045776 
0.035417 
0.041783 
0.030069 
0.018160 
0.041022 
0.000000 
0.032653 
0.020897 
0.044686 
0.046452 
0.074916 
0.000000 
0.077154 
0.000000 
0.085483 
0.000000 
0.079329 
0.053326 
0.067040 
0.030564 
0.027605 
0.043225 
0.035949 
0.068996 
0.097538 
0.085261 
0.091473 
0.076090 
0.088728 
0.000000 
0.000000 
0.000000 
0.089698 
0.048729 
0.071971 
0.000000 
0.062545 
0.000000 
0.040052 
0.020572 
0.029865 
0.010957 
0.000000 
0.000000 
0.030336 
0.050359 
0.055765 
0.000000 
0.073615 
0.047840 
0.018122 
0.020731 
0.051732 
0.049746 
0.037122 
0.054559 
0.069209 
0.049680 
0.014434 
0.000000 
0.000000 
0.034605 
0.085850 
0.098719 
0.000000 
0.000000 
0.067690 
0.057424 
0.000000 
0.106330 
0.086031 
0.065642 
0.041978 
0.071454 
0.000000 
0.000000 
0.085919 
0.038507 
0.048709 
0.058100 
0.060107 
0.052564 
0.000000 
0.079477 
0.000000 
0.051211 
0.034236 
0.064327 
0.000000 
0.084861 
0.071815 
0.000000 
0.106914 
0.000000 
0.047936 
0.050194 
0.067534 
0.000000 
0.081117 
0.027545 
0.067317 
0.048067 
0.064186 
0.038551 
0.074346 
0.047613 
0.013787 
0.000000 
0.032023 
0.094506 
0.000000 
0.065446 
0.032819 
0.046099 
0.055126 
0.000000 
0.069680 
0.096648 
0.000000 
0.044761 
0.045795 
0.000000 
0.049788 
0.061878 
0.000000 
0.000000 
0.000000 
0.000000 
0.000000 
0.107013 
0.163644 
0.000000 
0.075490 
0.047634 
0.000000 
0.068608 
0.033853 
0.042611 
0.022334 
0.000000 
0.000000 
0.000000 
0.000000 
0.029081 
0.085297 
0.000000 
0.045877 
0.045803 
0.048353 
0.000000 
0.035404 
0.038166 
0.090488 
0.000000 
0.038584 
0.032703 
0.067499 
0.032512 
0.000000 
0.000000 
0.000000 
0.051013 
0.000000 
0.155970 
0.000000 
0.000000 
0.079628 
0.064991 
0.000000 
0.148972 
0.000000 
0.128223 
0.100084 
0.085602 
0.000000 
0.125548 
0.000000 
0.047922 
0.028653 
0.062988 
0.000000 
0.075630 
0.098997 
0.070102 
0.105825 
0.053120 
0.079318 
0.087860 
0.068109 
0.042580 
0.055470 
0.000000 
0.000000 
0.073844 
0.053657 
0.000000 
0.104090 
0.084361 
0.078718 
0.025702 
0.000000 
0.153548 
0.000000 
0.115409 
0.000000 
0.067767 
0.006616 
0.006988 
0.071005 
0.000000 
0.094998 
0.029037 
0.000000 
0.000000 
0.012507 
0.040734 
0.064803 
0.000000 
0.131602 
0.043807 
0.071981 
0.063959 
0.078077 
0.082521 
0.058155 
0.058133 
0.053032 
0.051794 
0.055368 
0.078381 
0.000000 
0.000000 
0.072103 
0.027860 
0.051688 
0.067863 
0.031800 
0.069367 
0.065470 
0.022648 
0.021483 
0.054685 
0.037486 
0.105576 
0.000000 
0.082438 
0.019337 
0.016711 
0.020062 
0.033193 
0.028269 
0.103440 
0.000000 
0.087564 
0.024421 
0.054892 
0.000000 
0.100961 
0.019008 
0.000000 
0.005706 
0.065848 
0.000000 
0.000000 
0.215713 
0.000000 
0.092287 
0.079371 
0.112430 
0.000000 
0.000000 
0.000000 
0.000000 
0.132995 
0.000000 
0.093346 
0.103109 
0.081436 
0.038751 
0.114056 
0.000000 
0.122908 
0.000000 
0.173406 
0.000000 
0.124801 
0.000000 
0.000000 
0.125491 
0.074090 
0.027636 
0.045524 
0.043848 
0.027898 
0.040968 
0.140806 
0.000000 
0.161303 
0.000000 
0.059882 
0.155025 
0.000000 
0.112103 
0.088760 
0.000000 
0.063620 
0.006543 
0.021086 
0.118863 
0.000000 
0.082931 
0.065174 
0.013700 
0.000000 
0.000000 
0.000000 
0.019200 
0.102257 
0.000000 
0.117999 
0.000000 
0.179045 
0.000000 
0.000000 
0.089389 
0.071084 
0.022720 
0.020675 
0.057064 
0.029907 
0.073487 
0.076267 
0.031256 
0.071037 
0.115994 
0.000000 
0.113768 
0.000000 
0.000000 
0.124059 
0.121219 
0.000000 
0.160240 
0.000000 
0.151577 
0.036436 
0.018335 
0.063986 
0.069540 
0.025758 
0.055460 
0.000000 
0.114072 
0.074372 
0.024031 
0.021911 
0.101211 
0.000000 
0.064523 
0.056638 
0.019778 
0.018089 
0.073791 
0.122406 
0.000000 
0.000000 
0.120661 
0.000000 
0.119672 
0.091469 
0.091306 
0.132923 
0.000000 
0.090191 
0.120794 
0.092087 
0.000000 
0.000000 
0.128322 
0.000000 
0.168027 
0.102149 
0.135370 
0.000000 
0.000000 
0.096948 
0.127215 
0.132679 
0.000000 
0.000000 
0.059043 
0.013770 
0.020755 
0.071735 
0.128264 
0.000000 
0.221795 
0.000000 
0.106288 
0.028615 
0.064838 
0.114615 
0.049919 
0.088217 
0.125193 
0.029300 
0.009267 
0.065242 
0.000000 
0.180202 
0.096951 
0.000000 
0.063031 
0.019301 
0.049112 
0.011229 
0.000000 
0.031142 
0.110335 
0.100217 
0.000000 
0.000000 
0.199843 
0.000000 
0.144701 
0.000000 
0.069299 
0.058216 
0.000000 
0.064953 
0.076270 
0.077446 
0.071443 
0.000000 
0.000000 
0.120822 
0.089105 
0.086245 
0.126926 
0.000000 
0.000000 
0.217932 
0.000000 
0.165756 
0.000000 
0.060210 
0.064009 
0.000000 
0.000000 
0.071054 
0.033249 
0.107244 
0.083202 
0.000000 
0.107274 
0.025909 
0.039378 
0.108038 
0.075480 
0.000000 
0.099469 
0.021631 
0.019181 
0.031156 
0.073964 
0.072852 
0.034412 
0.102257 
0.000000 
0.109993 
0.042519 
0.073739 
0.076326 
0.069730 
0.000000 
0.125384 
0.150457 
0.000000 
0.144077 
0.129567 
0.000000 
0.000000 
0.127671 
0.000000 
0.133754 
0.083091 
0.000000 
0.093474 
0.134408 
0.130665 
0.030047 
0.010800 
0.062930 
0.000000 
0.000000 
0.000000 
0.000000 
0.173637 
0.053612 
0.067940 
0.177859 
0.000000 
0.136823 
0.000000 
0.000000 
0.072383 
0.018400 
0.076916 
0.000000 
0.000000 
0.132460 
0.000000 
0.068290 
0.056755 
0.000000 
0.049287 
0.011529 
0.053888 
0.000000 
0.122020 
0.139582 
0.000000 
0.191809 
0.000000 
0.182574 
0.000000 
0.067000 
0.026844 
0.058822 
0.068826 
0.000000 
0.000000 
0.073120 
0.075887 
0.074931 
0.088435 
0.000000 
0.091282 
0.092779 
0.132516 
0.134243 
0.000000 
0.000000 
0.094356 
0.062135 
0.017057 
0.027648 
0.112941 
0.000000 
0.069954 
0.058907 
0.000000 
0.083411 
0.166631 
0.000000 
0.083781 
0.109307 
0.000000 
0.070840 
0.106622 
0.000000 
0.066273 
0.070480 
0.078325 
0.079433 
0.031495 
0.013865 
0.026219 
0.101010 
0.000000 
0.107253 
0.000000 
0.060564 
0.040372 
0.158474 
0.000000 
0.183587 
0.000000 
0.000000 
0.090274 
0.120304 
0.079587 
0.049819 
0.124483 
0.099486 
0.101039 
0.142544 
0.143569 
0.000000 
0.000000 
0.079451 
0.024353 
0.065620 
0.082253 
0.086439 
0.137726 
0.000000 
0.000000 
0.124171 
0.000000 
0.000000 
0.000000 
0.153179 
0.000000 
0.000000 
0.080689 
0.032208 
0.080796 
0.137325 
0.000000 
0.079366 
0.069854 
0.017151 
0.013054 
0.048538 
0.011189 
0.000000 
0.025985 
0.107743 
0.000000 
0.091541 
0.176655 
0.000000 
0.184177 
0.000000 
0.127022 
0.035692 
0.055753 
0.028627 
0.026585 
0.077619 
0.120577 
0.048322 
0.065880 
0.047221 
0.118206 
0.000000 
0.168706 
0.000000 
0.000000 
0.080732 
0.091900 
0.131978 
0.080751 
0.030937 
0.023338 
0.056175 
0.040244 
0.068352 
0.023210 
0.015616 
0.057359 
0.070861 
0.000000 
0.000000 
0.126511 
0.000000 
0.101699 
0.022654 
0.032920 
0.107065 
0.081337 
0.000000 
0.000000 
0.000000 
0.132243 
0.070434 
0.018127 
0.022157 
0.065276 
0.074013 
0.063756 
0.022409 
0.069103 
0.000000 
0.183511 
0.000000 
0.134505 
0.085378 
0.074138 
0.000000 
0.077363 
0.116721 
0.000000 
0.000000 
0.000000 
0.000000 
0.000000 
0.203408 
0.000000 
0.139741 
0.080844 
0.000000 
0.106954 
0.029697 
0.028733 
0.090475 
0.130146 
0.103256 
0.140041 
0.151858 
0.142173 
0.107719 
0.000000 
0.147416 
0.093319 
0.127314 
0.000000 
0.133116 
0.080585 
0.036822 
0.061595 
0.020484 
0.000000 
0.000000 
0.000000 
0.014299 
0.066006 
0.086637 
0.073204 
0.073360 
0.000000 
0.000000 
0.138284 
0.000000 
0.124879 
0.074303 
0.000000 
0.121957 
0.085394 
0.087514 
0.000000 
0.170648 
0.000000 
0.159358 
0.000000 
0.158052 
0.000000 
0.121022 
0.078588 
0.037619 
0.114876 
0.000000 
0.000000 
0.124176 
0.119819 
0.000000 
0.118243 
0.093255 
0.067358 
0.016645 
0.014864 
0.016621 
0.066957 
0.089324 
0.091055 
0.114323 
0.032263 
0.008901 
0.052126 
0.000000 
0.073588 
0.085530 
0.144198 
0.000000 
0.000000 
0.000000 
0.065734 
0.024733 
0.064888 
0.000000 
0.056784 
0.018790 
0.083563 
0.000000 
0.192673 
0.000000 
0.087761 
0.079761 
0.078692 
0.078613 
0.074865 
0.000000 
0.169452 
0.151692 
0.000000 
0.000000 
0.000000 
0.212368 
0.000000 
0.000000 
0.144106 
0.120894 
0.000000 
0.054199 
0.029714 
0.121167 
0.000000 
0.000000 
0.000000 
0.000000 
0.000000 
0.134036 
0.000000 
0.146464 
0.000000 
0.000000 
0.000000 
0.000000 
0.084671 
0.116642 
0.000000 
0.108628 
0.021259 
0.014139 
0.055628 
0.069491 
0.000000 
0.000000 
0.075643 
0.023114 
0.064432 
0.072110 
0.041971 
0.108759 
0.000000 
0.084692 
0.175726 
0.000000 
0.000000 
0.141128 
0.000000 
0.000000 
0.187996 
0.000000 
0.116357 
0.040591 
0.068496 
0.082422 
0.078671 
0.072858 
0.000000 
0.118519 
0.124089 
0.000000 
0.000000 
0.171652 
0.000000 
0.000000 
0.000000 
0.071202 
0.056893 
0.015897 
0.028194 
0.114755 
0.000000 
0.000000 
0.057501 
0.007012 
0.020283 
0.067232 
0.082673 
0.080498 
0.087915 
0.000000 
0.176383 
0.097365 
0.087460 
0.086585 
0.084321 
0.065597 
0.018469 
0.029988 
0.127029 
0.000000 
0.000000 
0.169376 
0.091160 
0.000000 
0.000000 
0.131628 
0.089906 
0.115218 
0.000000 
0.083156 
0.147452 
0.000000 
0.000000 
0.000000 
0.241150 
0.000000 
0.000000 
0.089405 
0.060055 
0.022288 
0.072657 
0.000000 
0.134687 
0.091414 
0.080679 
0.075042 
0.071267 
0.078724 
0.000000 
0.139721 
0.133450 
0.091192 
0.083714 
0.073403 
0.079859 
0.000000 
0.223231 
0.000000 
0.072891 
0.057603 
0.000000 
0.075560 
0.119917 
0.000000 
0.064731 
0.006664 
0.009285 
0.026592 
0.056514 
0.033795 
0.067457 
0.080952 
0.000000 
0.000000 
0.000000 
0.105251 
0.178738 
0.000000 
0.183421 
0.000000 
0.070692 
0.017454 
0.062656 
0.000000 
0.000000 
0.117434 
0.070355 
0.025478 
0.030870 
0.078953 
0.128517 
0.113694 
0.180017 
0.000000 
0.169465 
0.081660 
0.000000 
0.056441 
0.059260 
0.000000 
0.160315 
0.080796 
0.016636 
0.013752 
0.060434 
0.092369 
0.000000 
0.000000 
0.078228 
0.116285 
0.000000 
0.131789 
0.000000 
0.000000 
0.000000 
0.081533 
0.036930 
0.116538 
0.000000 
0.139103 
0.122484 
0.000000 
0.085952 
0.127220 
0.142126 
0.000000 
0.000000 
0.077660 
0.067420 
0.031125 
0.076766 
0.000000 
0.201713 
0.199712 
0.000000 
0.197043 
0.000000 
0.078044 
0.017275 
0.023345 
0.124839 
0.000000 
0.145368 
0.082773 
0.033545 
0.004231 
0.006809 
0.021450 
0.113583 
0.000000 
0.000000 
0.067113 
0.018561 
0.023264 
0.072101 
0.000000 
0.000000 
0.000000 
0.083869 
0.023349 
0.062632 
0.066215 
0.045669 
0.107806 
0.025765 
0.000000 
0.018469 
0.100823 
0.000000 
0.068902 
0.076692 
0.083951 
0.128532 
0.000000 
0.127395 
0.076711 
0.000000 
0.213101 
0.000000 
0.108922 
0.020544 
0.000000 
0.014046 
0.069160 
0.117297 
0.000000 
0.061132 
0.027551 
0.060577 
0.076461 
0.000000 
0.000000 
0.000000 
0.170162 
0.000000 
0.066194 
0.058038 
0.020699 
0.021172 
0.100594 
0.000000 
0.065079 
0.014956 
0.051896 
0.000000 
0.163665 
0.000000 
0.120895 
0.026395 
0.035752 
0.117165 
0.109158 
0.000000 
0.000000 
0.000000 
0.105153 
0.124771 
0.000000 
0.000000 
0.090400 
0.032040 
0.072467 
0.119762 
0.000000 
0.122068 
0.000000 
0.119744 
0.038623 
0.076529 
0.067122 
0.035504 
0.117398 
0.000000 
0.000000 
0.000000 
0.150325 
0.000000 
0.064353 
0.014398 
0.058141 
0.000000 
0.000000 
0.000000 
0.000000 
0.127030 
0.000000 
0.000000 
0.000000 
0.035448 
0.132322 
0.131522 
0.031426 
0.017979 
0.058393 
0.031444 
0.086856 
0.148103 
0.000000 
0.079395 
0.017496 
0.057262 
0.000000 
0.101329 
0.000000 
0.051567 
0.011600 
0.052722 
0.000000 
0.162258 
0.094070 
0.000000 
0.000000 
0.077601 
0.073779 
0.031013 
0.025242 
0.115422 
0.000000 
0.115853 
0.028555 
0.008526 
0.000000 
0.000000 
0.021752 
0.071744 
0.073696 
0.040688 
0.102700 
0.000000 
0.067506 
0.076966 
0.077922 
0.079239 
0.083020 
0.067383 
0.024640 
0.027675 
0.053241 
0.015198 
0.021568 
0.063719 
0.062234 
0.014942 
0.019370 
0.101798 
0.000000 
0.169206 
0.088279 
0.025188 
0.066107 
0.000000 
0.131537 
0.000000 
0.245760 
0.000000 
0.144355 
0.000000 
0.176153 
0.000000 
0.072786 
0.019073 
0.070307 
0.000000 
0.119526 
0.037342 
0.072295 
0.077623 
0.083188 
0.000000 
0.000000 
0.061954 
0.040171 
0.121524 
0.137617 
0.000000 
0.078906 
0.063373 
0.013654 
0.000000 
0.013394 
0.067740 
0.102323 
0.146628 
0.181178 
0.000000 
0.051682 
0.018627 
0.010601 
0.072068 
0.000000 
0.000000 
0.080133 
0.076292 
0.000000 
0.078516 
0.087244 
0.146776 
0.000000 
0.081004 
0.019166 
0.021225 
0.054082 
0.030737 
0.052596 
0.011596 
0.000000 
0.019708 
0.114276 
0.000000 
0.129309 
0.090127 
0.073452 
0.031318 
0.070461 
0.065252 
0.024643 
0.075985 
0.000000 
0.072087 
0.029571 
0.057452 
0.013449 
0.006818 
0.059331 
0.000000 
0.131463 
0.123258 
0.000000 
0.105856 
0.040938 
0.067653 
0.029618 
0.061012 
0.000000 
0.071753 
0.075991 
0.114035 
0.000000 
0.054700 
0.020562 
0.057546 
0.000000 
0.049068 
0.006965 
0.024947 
0.107754 
0.000000 
0.000000 
0.063587 
0.068597 
0.000000 
0.094788 
0.172097 
0.000000 
0.000000 
0.145373 
0.000000 
0.095996 
0.079175 
0.065231 
0.021825 
0.065775 
0.000000 
0.117604 
0.029110 
0.059003 
0.000000 
0.112787 
0.000000 
0.117995 
0.027668 
0.053943 
0.000000 
0.071584 
0.064481 
0.014918 
0.000000 
0.000000 
0.000000 
0.000000 
0.026625 
0.115507 
0.000000 
0.000000 
0.127356 
0.000000 
0.102416 
0.034723 
0.079158 
0.000000 
0.000000 
0.089387 
0.119834 
0.000000 
0.126091 
0.000000 
0.000000 
0.000000 
0.103553 
0.079857 
0.067078 
0.032468 
0.054361 
0.018384 
0.000000 
0.000000 
0.010849 
0.080314 
0.000000 
0.000000 
0.133458 
0.084448 
0.072015 
0.000000 
0.000000 
0.071318 
0.072345 
0.078378 
0.043284 
0.114304 
0.000000 
0.064487 
0.023004 
0.082415 
0.178722 
0.000000 
0.000000 
0.161305 
0.065485 
0.123773 
0.000000 
0.067699 
0.034983 
0.112386 
0.082361 
0.000000 
0.000000 
0.163170 
0.044941 
0.054606 
0.025004 
0.051124 
0.011333 
0.000000 
0.000000 
0.019553 
0.064848 
0.067890 
0.016261 
0.016742 
0.068227 
0.067928 
0.000000 
0.128091 
0.132379 
0.093160 
0.000000 
0.073316 
0.065914 
0.000000 
0.054925 
0.032921 
0.106996 
0.000000 
0.052549 
0.018896 
0.051501 
0.028810 
0.076814 
0.070828 
0.016569 
0.015099 
0.058029 
0.023777 
0.015660 
0.000000 
0.000000 
0.000000 
0.000000 
0.000000 
0.052628 
0.000000 
0.125886 
0.119809 
0.037372 
0.151486 
0.000000 
0.120796 
0.084588 
0.085667 
0.083479 
0.068236 
0.000000 
0.120274 
0.089434 
0.086199 
0.129474 
0.000000 
0.183375 
0.000000 
0.000000 
0.108702 
0.000000 
0.053270 
0.018186 
0.050428 
0.026456 
0.068338 
0.094725 
0.135337 
0.000000 
0.000000 
0.073464 
0.082838 
0.123904 
0.078839 
0.000000 
0.124691 
0.125941 
0.000000 
0.000000 
0.074365 
0.064316 
0.000000 
0.000000 
0.000000 
0.170774 
0.000000 
0.177653 
0.000000 
0.000000 
0.083677 
0.073536 
0.000000 
0.078905 
0.089435 
0.174284 
0.000000 
0.115352 
0.000000 
0.052853 
0.018081 
0.000000 
0.000000 
0.000000 
0.000000 
0.019518 
0.056460 
0.014732 
0.015325 
0.057682 
0.026907 
0.061000 
0.076278 
0.000000 
0.083605 
0.113010 
0.029894 
0.029734 
0.106880 
0.039977 
0.061987 
0.033288 
0.052663 
0.012989 
0.006036 
0.006827 
0.021045 
0.105639 
0.000000 
0.052890 
0.021388 
0.070650 
0.080991 
0.066077 
0.026016 
0.051869 
0.017999 
0.000000 
0.000000 
0.025421 
0.107629 
0.087614 
0.000000 
0.059117 
0.047701 
0.122364 
0.000000 
0.000000 
0.077901 
0.066071 
0.028268 
0.061318 
0.080940 
0.000000 
0.080192 
0.046169 
0.126606 
0.000000 
0.000000 
0.133289 
0.047478 
0.102115 
0.031607 
0.053297 
0.000000 
0.105915 
0.000000 
0.116458 
0.101449 
0.000000 
0.125736 
0.037616 
0.075095 
0.000000 
0.085316 
0.120905 
0.000000 
0.000000 
0.119220 
0.074620 
0.016758 
0.014966 
0.062920 
0.075584 
0.072622 
0.042122 
0.122549 
0.000000 
0.000000 
0.138462 
0.080728 
0.082328 
0.000000 
0.070192 
0.072225 
0.000000 
0.000000 
0.080148 
0.059174 
0.025184 
0.051310 
0.011675 
0.000000 
0.000000 
0.011534 
0.051021 
0.000000 
0.056994 
0.062969 
0.000000 
0.053990 
0.026625 
0.066042 
0.081239 
0.113635 
0.000000 
0.061047 
0.071782 
0.000000 
0.127350 
0.000000 
0.071715 
0.016935 
0.015277 
0.055472 
0.020583 
0.054138 
0.000000 
0.106988 
0.027421 
0.059596 
0.000000 
0.000000 
0.000000 
0.109804 
0.000000 
0.101670 
0.026638 
0.017168 
0.060179 
0.000000 
0.112845 
0.070742 
0.024360 
0.023290 
0.084665 
0.000000 
0.130707 
0.071762 
0.000000 
0.059373 
0.028224 
0.067424 
0.000000 
0.131909 
0.089021 
0.103126 
0.176936 
0.000000 
0.087546 
0.070705 
0.000000 
0.061899 
0.028185 
0.065564 
0.079962 
0.112669 
0.000000 
0.114512 
0.000000 
0.083345 
0.069747 
0.093629 
0.000000 
0.090916 
0.090705 
0.125153 
0.078470 
0.029324 
0.010582 
0.000000 
0.000000 
0.000000 
0.000000 
0.000000 
0.009527 
0.070868 
0.000000 
0.128295 
0.085635 
0.000000 
0.112447 
0.074426 
0.017512 
0.015781 
0.064906 
0.073936 
0.018264 
0.014358 
0.052638 
0.000000 
0.052392 
0.013369 
0.013528 
0.050612 
0.025968 
0.058540 
0.029018 
0.075126 
0.110832 
0.032402 
0.053869 
0.000000 
0.105848 
0.000000 
0.102214 
0.035068 
0.079840 
0.000000 
0.150235 
0.000000 
0.124058 
0.030263 
0.064295 
0.000000 
0.070597 
0.035519 
0.113271 
0.081509 
0.024931 
0.023423 
0.113557 
0.000000 
0.118416 
0.057452 
0.152869 
0.000000 
0.114929 
0.081999 
0.082427 