# vtk DataFile Version 3.0
results.vtk
ASCII
DATASET RECTILINEAR_GRID
DIMENSIONS 100 100 1
X_COORDINATES 100 double
0.000000 0.010000 0.020000 0.030000 0.040000 0.050000 0.060000 0.070000 0.080000 0.090000 0.100000 0.110000 0.120000 0.130000 0.140000 0.150000 0.160000 0.170000 0.180000 0.190000 0.200000 0.210000 0.220000 0.230000 0.240000 0.250000 0.260000 0.270000 0.280000 0.290000 0.300000 0.310000 0.320000 0.330000 0.340000 0.350000 0.360000 0.370000 0.380000 0.390000 0.400000 0.410000 0.420000 0.430000 0.440000 0.450000 0.460000 0.470000 0.480000 0.490000 0.500000 0.510000 0.520000 0.530000 0.540000 0.550000 0.560000 0.570000 0.580000 0.590000 0.600000 0.610000 0.620000 0.630000 0.640000 0.650000 0.660000 0.670000 0.680000 0.690000 0.700000 0.710000 0.720000 0.730000 0.740000 0.750000 0.760000 0.770000 0.780000 0.790000 0.800000 0.810000 0.820000 0.830000 0.840000 0.850000 0.860000 0.870000 0.880000 0.890000 0.900000 0.910000 0.920000 0.930000 0.940000 0.950000 0.960000 0.970000 0.980000 0.990000 
Y_COORDINATES 100 double
0.000000 0.010000 0.020000 0.030000 0.040000 0.050000 0.060000 0.070000 0.080000 0.090000 0.100000 0.110000 0.120000 0.130000 0.140000 0.150000 0.160000 0.170000 0.180000 0.190000 0.200000 0.210000 0.220000 0.230000 0.240000 0.250000 0.260000 0.270000 0.280000 0.290000 0.300000 0.310000 0.320000 0.330000 0.340000 0.350000 0.360000 0.370000 0.380000 0.390000 0.400000 0.410000 0.420000 0.430000 0.440000 0.450000 0.460000 0.470000 0.480000 0.490000 0.500000 0.510000 0.520000 0.530000 0.540000 0.550000 0.560000 0.570000 0.580000 0.590000 0.600000 0.610000 0.620000 0.630000 0.640000 0.650000 0.660000 0.670000 0.680000 0.690000 0.700000 0.710000 0.720000 0.730000 0.740000 0.750000 0.760000 0.770000 0.780000 0.790000 0.800000 0.810000 0.820000 0.830000 0.840000 0.850000 0.860000 0.870000 0.880000 0.890000 0.900000 0.910000 0.920000 0.930000 0.940000 0.950000 0.960000 0.970000 0.980000 0.990000 
Z_COORDINATES 1 double
0
POINT_DATA 10000 
FIELD FieldData 1 
Concentração 1 10000 double 
0.003224 
0.000000 
0.002895 
0.002605 
0.000000 
0.002187 
0.002101 
0.002046 
0.000000 
0.002036 
0.002193 
0.002267 
0.000000 
0.002028 
0.000000 
0.000000 
0.000000 
0.002525 
0.000000 
0.000000 
0.002421 
0.000000 
0.000000 
0.002600 
0.002485 
0.000000 
0.002002 
0.001820 
0.001743 
0.001716 
0.001782 
0.001949 
0.002047 
0.001949 
0.001759 
0.001659 
0.001608 
0.000000 
0.001317 
0.001325 
0.000000 
0.001752 
0.001823 
0.001543 
0.000889 
0.000000 
0.000620 
0.001222 
0.000000 
0.000000 
0.000000 
0.002321 
0.000000 
0.000835 
0.000000 
0.000000 
0.000000 
0.001673 
0.002743 
0.000000 
0.003036 
0.000000 
0.002351 
0.002149 
0.002025 
0.001946 
0.001945 
0.001954 
0.001854 
0.001659 
0.001410 
0.001195 
0.001067 
0.001048 
0.001093 
0.001090 
0.000000 
0.000496 
0.000000 
0.000000 
0.000740 
0.001312 
0.001841 
0.002258 
0.002449 
0.000000 
0.002118 
0.000000 
0.001845 
0.001891 
0.000000 
0.000000 
0.001535 
0.001276 
0.001216 
0.001330 
0.000000 
0.001236 
0.000803 
0.000000 
0.003088 
0.000000 
0.000000 
0.002496 
0.000000 
0.002052 
0.000000 
0.000000 
0.001965 
0.002070 
0.002246 
0.000000 
0.002106 
0.001961 
0.002096 
0.002402 
0.002585 
0.002507 
0.002314 
0.002231 
0.002326 
0.000000 
0.002572 
0.002580 
0.000000 
0.002298 
0.002061 
0.001881 
0.000000 
0.001710 
0.001734 
0.000000 
0.000000 
0.000000 
0.001755 
0.001670 
0.000000 
0.001462 
0.001313 
0.001318 
0.001492 
0.001710 
0.000000 
0.000000 
0.000916 
0.000000 
0.000638 
0.001171 
0.001710 
0.002218 
0.000000 
0.002256 
0.001636 
0.000841 
0.000000 
0.000000 
0.000707 
0.001847 
0.000000 
0.000000 
0.002945 
0.000000 
0.002245 
0.000000 
0.000000 
0.001981 
0.002006 
0.000000 
0.001885 
0.000000 
0.001459 
0.001264 
0.001144 
0.001124 
0.001161 
0.001142 
0.000924 
0.000508 
0.000000 
0.000321 
0.000821 
0.001323 
0.000000 
0.002210 
0.000000 
0.000000 
0.002081 
0.001936 
0.001897 
0.001914 
0.001903 
0.000000 
0.001526 
0.001314 
0.001260 
0.001343 
0.000000 
0.001251 
0.000939 
0.000594 
0.000000 
0.002666 
0.002488 
0.002248 
0.001983 
0.001761 
0.001692 
0.001774 
0.001955 
0.002195 
0.000000 
0.000000 
0.002034 
0.001813 
0.001925 
0.000000 
0.000000 
0.000000 
0.002226 
0.002083 
0.000000 
0.002295 
0.002449 
0.000000 
0.002486 
0.000000 
0.002169 
0.001990 
0.001811 
0.000000 
0.001568 
0.001669 
0.001804 
0.001823 
0.001757 
0.001712 
0.001640 
0.001481 
0.001343 
0.001331 
0.001440 
0.000000 
0.001661 
0.001496 
0.001095 
0.000694 
0.000793 
0.000000 
0.001399 
0.001861 
0.000000 
0.000000 
0.001610 
0.000894 
0.000000 
0.000000 
0.000909 
0.001913 
0.000000 
0.000000 
0.002685 
0.002293 
0.001991 
0.001884 
0.001933 
0.002047 
0.002125 
0.000000 
0.001918 
0.001718 
0.001529 
0.000000 
0.001271 
0.000000 
0.001274 
0.000000 
0.000998 
0.000556 
0.000000 
0.000431 
0.000000 
0.001279 
0.001719 
0.000000 
0.002189 
0.002130 
0.002045 
0.002049 
0.002071 
0.000000 
0.001877 
0.001718 
0.001560 
0.001451 
0.001404 
0.001409 
0.001392 
0.001252 
0.000000 
0.000844 
0.002288 
0.000000 
0.002180 
0.000000 
0.001802 
0.001574 
0.001538 
0.001751 
0.002113 
0.002454 
0.002588 
0.000000 
0.001953 
0.001655 
0.001717 
0.002022 
0.000000 
0.000000 
0.002116 
0.001969 
0.001993 
0.002158 
0.002357 
0.000000 
0.002431 
0.002312 
0.000000 
0.000000 
0.001729 
0.001452 
0.001301 
0.001431 
0.001655 
0.001788 
0.001808 
0.000000 
0.000000 
0.001570 
0.001456 
0.000000 
0.001413 
0.001473 
0.001534 
0.000000 
0.001236 
0.000981 
0.000885 
0.000870 
0.000903 
0.001394 
0.001795 
0.000000 
0.001609 
0.001091 
0.000458 
0.000000 
0.000855 
0.000000 
0.000000 
0.002518 
0.000000 
0.001974 
0.001741 
0.001706 
0.001862 
0.000000 
0.000000 
0.002130 
0.001906 
0.000000 
0.001534 
0.001410 
0.001298 
0.001251 
0.001284 
0.000000 
0.001088 
0.000672 
0.000000 
0.000507 
0.000843 
0.001176 
0.001566 
0.000000 
0.002048 
0.002066 
0.002125 
0.000000 
0.000000 
0.002173 
0.001931 
0.001767 
0.001710 
0.000000 
0.000000 
0.001542 
0.001445 
0.001282 
0.001098 
0.000967 
0.001923 
0.001933 
0.001953 
0.000000 
0.001788 
0.001613 
0.001643 
0.001977 
0.000000 
0.000000 
0.000000 
0.002445 
0.001908 
0.001559 
0.001557 
0.001778 
0.002009 
0.002103 
0.002050 
0.001974 
0.002004 
0.000000 
0.002357 
0.000000 
0.002348 
0.002172 
0.000000 
0.001778 
0.000000 
0.001138 
0.000884 
0.001187 
0.000000 
0.000000 
0.001827 
0.001828 
0.001775 
0.001696 
0.001644 
0.001576 
0.001482 
0.001450 
0.001509 
0.001542 
0.001438 
0.001260 
0.001060 
0.000752 
0.000000 
0.000969 
0.001462 
0.001676 
0.001612 
0.000000 
0.000686 
0.000000 
0.000565 
0.001252 
0.000000 
0.001926 
0.001846 
0.001663 
0.000000 
0.001563 
0.001763 
0.000000 
0.002210 
0.002130 
0.001884 
0.001653 
0.001499 
0.000000 
0.001246 
0.001172 
0.001217 
0.001292 
0.001228 
0.001004 
0.000738 
0.000784 
0.000913 
0.001136 
0.001481 
0.001841 
0.002058 
0.002172 
0.002321 
0.002502 
0.000000 
0.000000 
0.002030 
0.001916 
0.001940 
0.001942 
0.001838 
0.001693 
0.000000 
0.001386 
0.001236 
0.001146 
0.001801 
0.001825 
0.001888 
0.001937 
0.000000 
0.001801 
0.001911 
0.002314 
0.002811 
0.000000 
0.002958 
0.000000 
0.001899 
0.001536 
0.000000 
0.001616 
0.001807 
0.001974 
0.000000 
0.000000 
0.002153 
0.002298 
0.002465 
0.000000 
0.002359 
0.002079 
0.001788 
0.001500 
0.001188 
0.000782 
0.000000 
0.000903 
0.001370 
0.000000 
0.001701 
0.000000 
0.001761 
0.001800 
0.000000 
0.001806 
0.001658 
0.001560 
0.001610 
0.000000 
0.001709 
0.000000 
0.001449 
0.001174 
0.000874 
0.001049 
0.000000 
0.001496 
0.000000 
0.001403 
0.000870 
0.000000 
0.000000 
0.000588 
0.000945 
0.001233 
0.000000 
0.001365 
0.001359 
0.001426 
0.001620 
0.001906 
0.000000 
0.000000 
0.001910 
0.001675 
0.001497 
0.001344 
0.001184 
0.001089 
0.001155 
0.001308 
0.000000 
0.001289 
0.000000 
0.001049 
0.001070 
0.001220 
0.001523 
0.000000 
0.000000 
0.000000 
0.002531 
0.000000 
0.002628 
0.002352 
0.002095 
0.000000 
0.000000 
0.000000 
0.002023 
0.001822 
0.000000 
0.001521 
0.001435 
0.001401 
0.000000 
0.001932 
0.001974 
0.002001 
0.000000 
0.001955 
0.002129 
0.000000 
0.000000 
0.000000 
0.000000 
0.002445 
0.001885 
0.001525 
0.001419 
0.000000 
0.001633 
0.000000 
0.002047 
0.002203 
0.002354 
0.002519 
0.000000 
0.002743 
0.002586 
0.002228 
0.001802 
0.001435 
0.001161 
0.000946 
0.000775 
0.001036 
0.001269 
0.001403 
0.001457 
0.001511 
0.000000 
0.001756 
0.000000 
0.000000 
0.000000 
0.001645 
0.001676 
0.000000 
0.001903 
0.001939 
0.000000 
0.001608 
0.001298 
0.001118 
0.001089 
0.001240 
0.001470 
0.000000 
0.001170 
0.000582 
0.000000 
0.000000 
0.000000 
0.000547 
0.000930 
0.001133 
0.001233 
0.000000 
0.001497 
0.001745 
0.001969 
0.000000 
0.001964 
0.001762 
0.000000 
0.001322 
0.000000 
0.000971 
0.001078 
0.000000 
0.001444 
0.001449 
0.001337 
0.001234 
0.000000 
0.001373 
0.001632 
0.001946 
0.002206 
0.002412 
0.000000 
0.002755 
0.000000 
0.002363 
0.002122 
0.002138 
0.002303 
0.002348 
0.002179 
0.001933 
0.001731 
0.001595 
0.000000 
0.000000 
0.002025 
0.000000 
0.000000 
0.001996 
0.001916 
0.000000 
0.002107 
0.000000 
0.002937 
0.003053 
0.002824 
0.000000 
0.001880 
0.001530 
0.001355 
0.001329 
0.001435 
0.001662 
0.000000 
0.002230 
0.000000 
0.000000 
0.002890 
0.000000 
0.000000 
0.000000 
0.002060 
0.001643 
0.001407 
0.001302 
0.001245 
0.000000 
0.001308 
0.001308 
0.001280 
0.001279 
0.001363 
0.001549 
0.001757 
0.001810 
0.001679 
0.001539 
0.000000 
0.001718 
0.001928 
0.000000 
0.002109 
0.000000 
0.000000 
0.001069 
0.000732 
0.000813 
0.001260 
0.000000 
0.001454 
0.001080 
0.000579 
0.000000 
0.000000 
0.000000 
0.000675 
0.001056 
0.001239 
0.001353 
0.001502 
0.001691 
0.001866 
0.001999 
0.000000 
0.001886 
0.001629 
0.001306 
0.000971 
0.000697 
0.000950 
0.001240 
0.001444 
0.000000 
0.001423 
0.001337 
0.001369 
0.001528 
0.001760 
0.001990 
0.000000 
0.002335 
0.002551 
0.000000 
0.000000 
0.002393 
0.002173 
0.002192 
0.000000 
0.000000 
0.000000 
0.002019 
0.001776 
0.001592 
0.001489 
0.001449 
0.001972 
0.001983 
0.001957 
0.000000 
0.001690 
0.001653 
0.001851 
0.002276 
0.000000 
0.000000 
0.002657 
0.002309 
0.001915 
0.000000 
0.001375 
0.001276 
0.001320 
0.001507 
0.001796 
0.002133 
0.000000 
0.002712 
0.002938 
0.003159 
0.000000 
0.000000 
0.002326 
0.000000 
0.001767 
0.000000 
0.001715 
0.001641 
0.001542 
0.001437 
0.001316 
0.001214 
0.001215 
0.001358 
0.001540 
0.000000 
0.001441 
0.001273 
0.001258 
0.001479 
0.001818 
0.002109 
0.002203 
0.002023 
0.001564 
0.000899 
0.000000 
0.000000 
0.001018 
0.001545 
0.000000 
0.001545 
0.001166 
0.000615 
0.000000 
0.000000 
0.000661 
0.000000 
0.001415 
0.001570 
0.001719 
0.000000 
0.001893 
0.001994 
0.000000 
0.002069 
0.001818 
0.001412 
0.000900 
0.000000 
0.000904 
0.001298 
0.001483 
0.000000 
0.001476 
0.001414 
0.001461 
0.000000 
0.000000 
0.000000 
0.002076 
0.002174 
0.000000 
0.002571 
0.002602 
0.000000 
0.002251 
0.002225 
0.002327 
0.000000 
0.002204 
0.000000 
0.000000 
0.001601 
0.001430 
0.001317 
0.001860 
0.001857 
0.000000 
0.001625 
0.001444 
0.001375 
0.001523 
0.001902 
0.000000 
0.002529 
0.000000 
0.000000 
0.001957 
0.001712 
0.001515 
0.001409 
0.001412 
0.001522 
0.001720 
0.001974 
0.000000 
0.000000 
0.002776 
0.000000 
0.000000 
0.002865 
0.002443 
0.002143 
0.002090 
0.000000 
0.002231 
0.002120 
0.001922 
0.000000 
0.000000 
0.001326 
0.001235 
0.001285 
0.000000 
0.001335 
0.001158 
0.000928 
0.000810 
0.001130 
0.000000 
0.000000 
0.000000 
0.000000 
0.001595 
0.000928 
0.000000 
0.000525 
0.001142 
0.001613 
0.000000 
0.001888 
0.000000 
0.001123 
0.000482 
0.000000 
0.000663 
0.000000 
0.001704 
0.001972 
0.002149 
0.000000 
0.002069 
0.002086 
0.002252 
0.000000 
0.000000 
0.001794 
0.001422 
0.001197 
0.001489 
0.001674 
0.001694 
0.001644 
0.001576 
0.001531 
0.001562 
0.001687 
0.001856 
0.001975 
0.002015 
0.002050 
0.002211 
0.000000 
0.002551 
0.002474 
0.000000 
0.002230 
0.000000 
0.002140 
0.002000 
0.001892 
0.001826 
0.001720 
0.001534 
0.001365 
0.001913 
0.000000 
0.001785 
0.001606 
0.001425 
0.001282 
0.001278 
0.001509 
0.000000 
0.002280 
0.002301 
0.002139 
0.001925 
0.000000 
0.001687 
0.001660 
0.000000 
0.001754 
0.000000 
0.001899 
0.002052 
0.002258 
0.002532 
0.000000 
0.000000 
0.002783 
0.000000 
0.002325 
0.002401 
0.002652 
0.000000 
0.002692 
0.000000 
0.002011 
0.001750 
0.001537 
0.001391 
0.001338 
0.001263 
0.001062 
0.000000 
0.000516 
0.000000 
0.000623 
0.001388 
0.001837 
0.001999 
0.001928 
0.000000 
0.001186 
0.000840 
0.001031 
0.000000 
0.001713 
0.001921 
0.000000 
0.000000 
0.000000 
0.000644 
0.000000 
0.000534 
0.001391 
0.000000 
0.002595 
0.000000 
0.002764 
0.002476 
0.002374 
0.002559 
0.000000 
0.002704 
0.000000 
0.002182 
0.002125 
0.000000 
0.000000 
0.002115 
0.001916 
0.000000 
0.000000 
0.001851 
0.001946 
0.002097 
0.002218 
0.000000 
0.002203 
0.002295 
0.002489 
0.000000 
0.000000 
0.002357 
0.002239 
0.002149 
0.002031 
0.001943 
0.001984 
0.002080 
0.000000 
0.000000 
0.001626 
0.002603 
0.002551 
0.002409 
0.002217 
0.001993 
0.000000 
0.001215 
0.001074 
0.001916 
0.002467 
0.002459 
0.000000 
0.001739 
0.000000 
0.001706 
0.000000 
0.002103 
0.002306 
0.002334 
0.002257 
0.002305 
0.002464 
0.002704 
0.002938 
0.002995 
0.002865 
0.002674 
0.002612 
0.002821 
0.000000 
0.000000 
0.000000 
0.002924 
0.002411 
0.002136 
0.000000 
0.001813 
0.000000 
0.001371 
0.000713 
0.000468 
0.000257 
0.000000 
0.000000 
0.001542 
0.001945 
0.001958 
0.000000 
0.001699 
0.001474 
0.001418 
0.001679 
0.001970 
0.002054 
0.002060 
0.002137 
0.002097 
0.001559 
0.000551 
0.000000 
0.000000 
0.001631 
0.002899 
0.003746 
0.000000 
0.000000 
0.003395 
0.003133 
0.000000 
0.003728 
0.003888 
0.003761 
0.003521 
0.003383 
0.000000 
0.000000 
0.002895 
0.002569 
0.002420 
0.002528 
0.002709 
0.002841 
0.000000 
0.003214 
0.000000 
0.003071 
0.003077 
0.003153 
0.000000 
0.002815 
0.002512 
0.000000 
0.002273 
0.000000 
0.002390 
0.002716 
0.002986 
0.000000 
0.002584 
0.002185 
0.005049 
0.004933 
0.004660 
0.004360 
0.003950 
0.002829 
0.001600 
0.000000 
0.002861 
0.004066 
0.000000 
0.002603 
0.001289 
0.001106 
0.001513 
0.000000 
0.002932 
0.003771 
0.000000 
0.003912 
0.004028 
0.000000 
0.004472 
0.004505 
0.000000 
0.000000 
0.000000 
0.000000 
0.000000 
0.004504 
0.005319 
0.000000 
0.004250 
0.003504 
0.000000 
0.003263 
0.003158 
0.003070 
0.002433 
0.000000 
0.000000 
0.000000 
0.000000 
0.002569 
0.003425 
0.000000 
0.002566 
0.002360 
0.002267 
0.000000 
0.002523 
0.003227 
0.003617 
0.000000 
0.002927 
0.002988 
0.003196 
0.002455 
0.000000 
0.000000 
0.000000 
0.002724 
0.000000 
0.006432 
0.000000 
0.000000 
0.005651 
0.005111 
0.000000 
0.006292 
0.000000 
0.006969 
0.006595 
0.006015 
0.000000 
0.005315 
0.000000 
0.004574 
0.004345 
0.004689 
0.000000 
0.005372 
0.005763 
0.006167 
0.006153 
0.005727 
0.005649 
0.005559 
0.005077 
0.004212 
0.003313 
0.000000 
0.000000 
0.003262 
0.004074 
0.000000 
0.005761 
0.005475 
0.004565 
0.003660 
0.000000 
0.011393 
0.000000 
0.010103 
0.000000 
0.006445 
0.004031 
0.004258 
0.007539 
0.000000 
0.008095 
0.004871 
0.000000 
0.000000 
0.001347 
0.002650 
0.005065 
0.000000 
0.008954 
0.008974 
0.009685 
0.010323 
0.010723 
0.010326 
0.008682 
0.007153 
0.005924 
0.005610 
0.006407 
0.008051 
0.000000 
0.000000 
0.008074 
0.006949 
0.007104 
0.007398 
0.007400 
0.007751 
0.007484 
0.006347 
0.006244 
0.006891 
0.007630 
0.008868 
0.000000 
0.006631 
0.004945 
0.004674 
0.004685 
0.004580 
0.005491 
0.007438 
0.000000 
0.007189 
0.005827 
0.005931 
0.000000 
0.006437 
0.003612 
0.000000 
0.002774 
0.006030 
0.000000 
0.000000 
0.014742 
0.000000 
0.011482 
0.010325 
0.011086 
0.000000 
0.000000 
0.000000 
0.000000 
0.012473 
0.000000 
0.011115 
0.011028 
0.010695 
0.010033 
0.010785 
0.000000 
0.012040 
0.000000 
0.014174 
0.000000 
0.012711 
0.000000 
0.000000 
0.011225 
0.008930 
0.006224 
0.004897 
0.005130 
0.006630 
0.009246 
0.012323 
0.000000 
0.012587 
0.000000 
0.007563 
0.014188 
0.000000 
0.012888 
0.012503 
0.000000 
0.008072 
0.005624 
0.007056 
0.011187 
0.000000 
0.011150 
0.007812 
0.003593 
0.000000 
0.000000 
0.000000 
0.003544 
0.007966 
0.000000 
0.012801 
0.000000 
0.016649 
0.000000 
0.000000 
0.013050 
0.010048 
0.007364 
0.006356 
0.006998 
0.008171 
0.009875 
0.010153 
0.009158 
0.009447 
0.010466 
0.000000 
0.011202 
0.000000 
0.000000 
0.012276 
0.012674 
0.000000 
0.014003 
0.000000 
0.011441 
0.008214 
0.006775 
0.007519 
0.007794 
0.006888 
0.007381 
0.000000 
0.010234 
0.009423 
0.007826 
0.007332 
0.008543 
0.000000 
0.007101 
0.005497 
0.005479 
0.006657 
0.009561 
0.012704 
0.000000 
0.000000 
0.012473 
0.000000 
0.012282 
0.012994 
0.013606 
0.014245 
0.000000 
0.013178 
0.013535 
0.014112 
0.000000 
0.000000 
0.014759 
0.000000 
0.015003 
0.014823 
0.015745 
0.000000 
0.000000 
0.015088 
0.014826 
0.014964 
0.000000 
0.000000 
0.008143 
0.005911 
0.006703 
0.009771 
0.013845 
0.000000 
0.018640 
0.000000 
0.012200 
0.009314 
0.015258 
0.015076 
0.014320 
0.014528 
0.013328 
0.009253 
0.007123 
0.009538 
0.000000 
0.015794 
0.013535 
0.000000 
0.006714 
0.003870 
0.002955 
0.001718 
0.000000 
0.006442 
0.011020 
0.014157 
0.000000 
0.000000 
0.020682 
0.000000 
0.016716 
0.000000 
0.009273 
0.007457 
0.000000 
0.008601 
0.010113 
0.010657 
0.010318 
0.000000 
0.000000 
0.012663 
0.012906 
0.013313 
0.014271 
0.000000 
0.000000 
0.017552 
0.000000 
0.014964 
0.000000 
0.008648 
0.008315 
0.000000 
0.000000 
0.008911 
0.008240 
0.009836 
0.011037 
0.000000 
0.010725 
0.009212 
0.009440 
0.009857 
0.008996 
0.000000 
0.008016 
0.007418 
0.008503 
0.010503 
0.011991 
0.011469 
0.009984 
0.010180 
0.000000 
0.011620 
0.011325 
0.011406 
0.011351 
0.011876 
0.000000 
0.015954 
0.017902 
0.000000 
0.016842 
0.015503 
0.000000 
0.000000 
0.015424 
0.000000 
0.016717 
0.015769 
0.000000 
0.016419 
0.016460 
0.014336 
0.009861 
0.007281 
0.008474 
0.000000 
0.000000 
0.000000 
0.000000 
0.017632 
0.013652 
0.011575 
0.018460 
0.000000 
0.017784 
0.000000 
0.000000 
0.011614 
0.009164 
0.011512 
0.000000 
0.000000 
0.014142 
0.000000 
0.007611 
0.005183 
0.000000 
0.003032 
0.002412 
0.006432 
0.000000 
0.013754 
0.016789 
0.000000 
0.021014 
0.000000 
0.018236 
0.000000 
0.010177 
0.007989 
0.008053 
0.009153 
0.000000 
0.000000 
0.011228 
0.011266 
0.011947 
0.013058 
0.000000 
0.014282 
0.014681 
0.015344 
0.015946 
0.000000 
0.000000 
0.013837 
0.010325 
0.007976 
0.008335 
0.010456 
0.000000 
0.009013 
0.007970 
0.000000 
0.011074 
0.013374 
0.000000 
0.011944 
0.011112 
0.000000 
0.009104 
0.009228 
0.000000 
0.009273 
0.010284 
0.011956 
0.012575 
0.010876 
0.008682 
0.008213 
0.009358 
0.000000 
0.010193 
0.000000 
0.009479 
0.011200 
0.015069 
0.000000 
0.018978 
0.000000 
0.000000 
0.014235 
0.013669 
0.013154 
0.013877 
0.016069 
0.017342 
0.018446 
0.019836 
0.020232 
0.000000 
0.000000 
0.013204 
0.009783 
0.009772 
0.011366 
0.013311 
0.016015 
0.000000 
0.000000 
0.015474 
0.000000 
0.000000 
0.000000 
0.019722 
0.000000 
0.000000 
0.013866 
0.011684 
0.013164 
0.015222 
0.000000 
0.012321 
0.009656 
0.006279 
0.003494 
0.002808 
0.001680 
0.000000 
0.006119 
0.010270 
0.000000 
0.014456 
0.017611 
0.000000 
0.019178 
0.000000 
0.014338 
0.010702 
0.009414 
0.009444 
0.010144 
0.011951 
0.013408 
0.012850 
0.012406 
0.012670 
0.013852 
0.000000 
0.015209 
0.000000 
0.000000 
0.013647 
0.014518 
0.014930 
0.012976 
0.010430 
0.009083 
0.009511 
0.010527 
0.010470 
0.008346 
0.006842 
0.007526 
0.009526 
0.000000 
0.000000 
0.013331 
0.000000 
0.009552 
0.007579 
0.008042 
0.009705 
0.010797 
0.000000 
0.000000 
0.000000 
0.014422 
0.010766 
0.008300 
0.008065 
0.008876 
0.008987 
0.008343 
0.008470 
0.011618 
0.000000 
0.018770 
0.000000 
0.016786 
0.014278 
0.012671 
0.000000 
0.012357 
0.014018 
0.000000 
0.000000 
0.000000 
0.000000 
0.000000 
0.024013 
0.000000 
0.017592 
0.013545 
0.000000 
0.010723 
0.010131 
0.011660 
0.014659 
0.016250 
0.016282 
0.016550 
0.018756 
0.018462 
0.018626 
0.000000 
0.018574 
0.015823 
0.014994 
0.000000 
0.015112 
0.013321 
0.011397 
0.009655 
0.006198 
0.000000 
0.000000 
0.000000 
0.003926 
0.008175 
0.010768 
0.010943 
0.011538 
0.000000 
0.000000 
0.015878 
0.000000 
0.013642 
0.012138 
0.000000 
0.013943 
0.014007 
0.014760 
0.000000 
0.016879 
0.000000 
0.015177 
0.000000 
0.013965 
0.000000 
0.013281 
0.012314 
0.011667 
0.012868 
0.000000 
0.000000 
0.012965 
0.012772 
0.000000 
0.013752 
0.013055 
0.010298 
0.007351 
0.006388 
0.007218 
0.009934 
0.012453 
0.012894 
0.011402 
0.008174 
0.006104 
0.007038 
0.000000 
0.011106 
0.013243 
0.016254 
0.000000 
0.000000 
0.000000 
0.010848 
0.009590 
0.009530 
0.000000 
0.007945 
0.008709 
0.012802 
0.000000 
0.019101 
0.000000 
0.015242 
0.013535 
0.012767 
0.012497 
0.012469 
0.000000 
0.016326 
0.019120 
0.000000 
0.000000 
0.000000 
0.026445 
0.000000 
0.000000 
0.017104 
0.013175 
0.000000 
0.008832 
0.010351 
0.014062 
0.000000 
0.000000 
0.000000 
0.000000 
0.000000 
0.016339 
0.000000 
0.018074 
0.000000 
0.000000 
0.000000 
0.000000 
0.013295 
0.013487 
0.000000 
0.010615 
0.006056 
0.004340 
0.005075 
0.007665 
0.000000 
0.000000 
0.009857 
0.008128 
0.009258 
0.010751 
0.011361 
0.012003 
0.000000 
0.013273 
0.016485 
0.000000 
0.000000 
0.017820 
0.000000 
0.000000 
0.018653 
0.000000 
0.012900 
0.010561 
0.010569 
0.011453 
0.011546 
0.011139 
0.000000 
0.012098 
0.012771 
0.000000 
0.000000 
0.016489 
0.000000 
0.000000 
0.000000 
0.009654 
0.007217 
0.006564 
0.008380 
0.011517 
0.000000 
0.000000 
0.007496 
0.005574 
0.006885 
0.009754 
0.011933 
0.013044 
0.014514 
0.000000 
0.017168 
0.015645 
0.014799 
0.014292 
0.012944 
0.010490 
0.008911 
0.010377 
0.014418 
0.000000 
0.000000 
0.016544 
0.014677 
0.000000 
0.000000 
0.014388 
0.013385 
0.013081 
0.000000 
0.015320 
0.019683 
0.000000 
0.000000 
0.000000 
0.025274 
0.000000 
0.000000 
0.013079 
0.009178 
0.008323 
0.011223 
0.000000 
0.016253 
0.015144 
0.014105 
0.010063 
0.010318 
0.011921 
0.000000 
0.016439 
0.015746 
0.013958 
0.012533 
0.011786 
0.012776 
0.000000 
0.017695 
0.000000 
0.010317 
0.007318 
0.000000 
0.009082 
0.011082 
0.000000 
0.007992 
0.004822 
0.005849 
0.007934 
0.009297 
0.009960 
0.011077 
0.013246 
0.000000 
0.000000 
0.000000 
0.017436 
0.018832 
0.000000 
0.018238 
0.000000 
0.009878 
0.006516 
0.007716 
0.000000 
0.000000 
0.011236 
0.010022 
0.009363 
0.010122 
0.012203 
0.014789 
0.016705 
0.018134 
0.000000 
0.014883 
0.010691 
0.000000 
0.006840 
0.007847 
0.000000 
0.011872 
0.009758 
0.006578 
0.005878 
0.008293 
0.011805 
0.000000 
0.000000 
0.012627 
0.013862 
0.000000 
0.017254 
0.000000 
0.000000 
0.000000 
0.014221 
0.012120 
0.013655 
0.000000 
0.016033 
0.014773 
0.000000 
0.013746 
0.014497 
0.015267 
0.000000 
0.000000 
0.011978 
0.011321 
0.011677 
0.014627 
0.000000 
0.022903 
0.023942 
0.000000 
0.021333 
0.000000 
0.011445 
0.007606 
0.008220 
0.012770 
0.000000 
0.017323 
0.015052 
0.013020 
0.004268 
0.004700 
0.006617 
0.011618 
0.000000 
0.000000 
0.011328 
0.009117 
0.009200 
0.011638 
0.000000 
0.000000 
0.000000 
0.012315 
0.008124 
0.007688 
0.008637 
0.009534 
0.009201 
0.005556 
0.000000 
0.004771 
0.008634 
0.000000 
0.010900 
0.011490 
0.012731 
0.014857 
0.000000 
0.015141 
0.014096 
0.000000 
0.017733 
0.000000 
0.011408 
0.006119 
0.000000 
0.003806 
0.007999 
0.010687 
0.000000 
0.009523 
0.008810 
0.009431 
0.011093 
0.000000 
0.000000 
0.000000 
0.015673 
0.000000 
0.009730 
0.007663 
0.006451 
0.006699 
0.008649 
0.000000 
0.008071 
0.005909 
0.006396 
0.000000 
0.013390 
0.000000 
0.013084 
0.010503 
0.011208 
0.014254 
0.017651 
0.000000 
0.000000 
0.000000 
0.017880 
0.015982 
0.000000 
0.000000 
0.013746 
0.011254 
0.011503 
0.012913 
0.000000 
0.013663 
0.000000 
0.012731 
0.011263 
0.011163 
0.010772 
0.011393 
0.014724 
0.000000 
0.000000 
0.000000 
0.017387 
0.000000 
0.008364 
0.005279 
0.007351 
0.000000 
0.000000 
0.000000 
0.000000 
0.015458 
0.000000 
0.000000 
0.000000 
0.008855 
0.013977 
0.014179 
0.010729 
0.008710 
0.009176 
0.010901 
0.014692 
0.018226 
0.000000 
0.012763 
0.008270 
0.007407 
0.000000 
0.008427 
0.000000 
0.004797 
0.002619 
0.005767 
0.000000 
0.013124 
0.013122 
0.000000 
0.000000 
0.011954 
0.011863 
0.010795 
0.010553 
0.013002 
0.000000 
0.012708 
0.008854 
0.004895 
0.000000 
0.000000 
0.006273 
0.010079 
0.011281 
0.010798 
0.010612 
0.000000 
0.010513 
0.011358 
0.011872 
0.012260 
0.012163 
0.010689 
0.008960 
0.008125 
0.007287 
0.006321 
0.006689 
0.007414 
0.006722 
0.005166 
0.005570 
0.008710 
0.000000 
0.014032 
0.012032 
0.009402 
0.010149 
0.000000 
0.016705 
0.000000 
0.023720 
0.000000 
0.019357 
0.000000 
0.016735 
0.000000 
0.011380 
0.009015 
0.010090 
0.000000 
0.012219 
0.010765 
0.010681 
0.010931 
0.011462 
0.000000 
0.000000 
0.009896 
0.010857 
0.013705 
0.015282 
0.000000 
0.011155 
0.007232 
0.003761 
0.000000 
0.004006 
0.009590 
0.014693 
0.017388 
0.017653 
0.000000 
0.004901 
0.004756 
0.005610 
0.010346 
0.000000 
0.000000 
0.012365 
0.010946 
0.000000 
0.012345 
0.014791 
0.017969 
0.000000 
0.013755 
0.009402 
0.007651 
0.007313 
0.006815 
0.005442 
0.002554 
0.000000 
0.005247 
0.010702 
0.000000 
0.014767 
0.013606 
0.011815 
0.010401 
0.010368 
0.009866 
0.009414 
0.011054 
0.000000 
0.011043 
0.008980 
0.007008 
0.004451 
0.004462 
0.008237 
0.000000 
0.014300 
0.014104 
0.000000 
0.012256 
0.011336 
0.010906 
0.009936 
0.010000 
0.000000 
0.010532 
0.010667 
0.011161 
0.000000 
0.007823 
0.006479 
0.006374 
0.000000 
0.004240 
0.003524 
0.005384 
0.009132 
0.000000 
0.000000 
0.008527 
0.008959 
0.000000 
0.014081 
0.017577 
0.000000 
0.000000 
0.018102 
0.000000 
0.014318 
0.012007 
0.009663 
0.008066 
0.009201 
0.000000 
0.010722 
0.008539 
0.008131 
0.000000 
0.010563 
0.000000 
0.010797 
0.008250 
0.008151 
0.000000 
0.010205 
0.008670 
0.004711 
0.000000 
0.000000 
0.000000 
0.000000 
0.006719 
0.012258 
0.000000 
0.000000 
0.014866 
0.000000 
0.009401 
0.009547 
0.011900 
0.000000 
0.000000 
0.012784 
0.012359 
0.000000 
0.013876 
0.000000 
0.000000 
0.000000 
0.016240 
0.012953 
0.010312 
0.008355 
0.006874 
0.004423 
0.000000 
0.000000 
0.005252 
0.010416 
0.000000 
0.000000 
0.015139 
0.012843 
0.011117 
0.000000 
0.000000 
0.010523 
0.011020 
0.011815 
0.011508 
0.011404 
0.000000 
0.007785 
0.007341 
0.010721 
0.015088 
0.000000 
0.000000 
0.015876 
0.014896 
0.014580 
0.000000 
0.010909 
0.010039 
0.011045 
0.011400 
0.000000 
0.000000 
0.013339 
0.009871 
0.007335 
0.005832 
0.004589 
0.002226 
0.000000 
0.000000 
0.004219 
0.007320 
0.007744 
0.006475 
0.006791 
0.008804 
0.010535 
0.000000 
0.015111 
0.015762 
0.014983 
0.000000 
0.011608 
0.010073 
0.000000 
0.008419 
0.008688 
0.009629 
0.000000 
0.006708 
0.005869 
0.006591 
0.008051 
0.009830 
0.009191 
0.006959 
0.006566 
0.007909 
0.007953 
0.005857 
0.000000 
0.000000 
0.000000 
0.000000 
0.000000 
0.005831 
0.000000 
0.013153 
0.012964 
0.011327 
0.012503 
0.000000 
0.013122 
0.013044 
0.013029 
0.012228 
0.010897 
0.000000 
0.012615 
0.013456 
0.014433 
0.016482 
0.000000 
0.018802 
0.000000 
0.000000 
0.010952 
0.000000 
0.006183 
0.004251 
0.004803 
0.007131 
0.010475 
0.013714 
0.015785 
0.000000 
0.000000 
0.011785 
0.011922 
0.012663 
0.011996 
0.000000 
0.013336 
0.013428 
0.000000 
0.000000 
0.008569 
0.007988 
0.000000 
0.000000 
0.000000 
0.016016 
0.000000 
0.017667 
0.000000 
0.000000 
0.012600 
0.011209 
0.000000 
0.011392 
0.012650 
0.014938 
0.000000 
0.011297 
0.000000 
0.005919 
0.003837 
0.000000 
0.000000 
0.000000 
0.000000 
0.004560 
0.006117 
0.005714 
0.006134 
0.007433 
0.008001 
0.009412 
0.011221 
0.000000 
0.012509 
0.011874 
0.009850 
0.009587 
0.010746 
0.010280 
0.009822 
0.008729 
0.007060 
0.005385 
0.004907 
0.005343 
0.006982 
0.009302 
0.000000 
0.007281 
0.007167 
0.009311 
0.010376 
0.008924 
0.006194 
0.005189 
0.003578 
0.000000 
0.000000 
0.005926 
0.010111 
0.011577 
0.000000 
0.009346 
0.012877 
0.014414 
0.000000 
0.000000 
0.012289 
0.010489 
0.009239 
0.009811 
0.011703 
0.000000 
0.014333 
0.015299 
0.017887 
0.000000 
0.000000 
0.016154 
0.012402 
0.010464 
0.008062 
0.007032 
0.000000 
0.009705 
0.000000 
0.013566 
0.015190 
0.000000 
0.014315 
0.012099 
0.012810 
0.000000 
0.013675 
0.014064 
0.000000 
0.000000 
0.012118 
0.009179 
0.005558 
0.004909 
0.006619 
0.008511 
0.009539 
0.011230 
0.014575 
0.000000 
0.000000 
0.016374 
0.013361 
0.012016 
0.000000 
0.010218 
0.010831 
0.000000 
0.000000 
0.010404 
0.007704 
0.006174 
0.005157 
0.002738 
0.000000 
0.000000 
0.002590 
0.005184 
0.000000 
0.006937 
0.007717 
0.000000 
0.007734 
0.007938 
0.009538 
0.011050 
0.011809 
0.000000 
0.010284 
0.011520 
0.000000 
0.014686 
0.000000 
0.010724 
0.007559 
0.006363 
0.006719 
0.006789 
0.008078 
0.000000 
0.010105 
0.008181 
0.008751 
0.000000 
0.000000 
0.000000 
0.011422 
0.000000 
0.009125 
0.006742 
0.006287 
0.008612 
0.000000 
0.011631 
0.010544 
0.009292 
0.012152 
0.014249 
0.000000 
0.014808 
0.011495 
0.000000 
0.009069 
0.009110 
0.010992 
0.000000 
0.015962 
0.016412 
0.017751 
0.019380 
0.000000 
0.016213 
0.013875 
0.000000 
0.010307 
0.008773 
0.009121 
0.010174 
0.011270 
0.000000 
0.012868 
0.000000 
0.012881 
0.012524 
0.014089 
0.000000 
0.014414 
0.014042 
0.013822 
0.011867 
0.009026 
0.005472 
0.000000 
0.000000 
0.000000 
0.000000 
0.000000 
0.005004 
0.010420 
0.000000 
0.015661 
0.014183 
0.000000 
0.011647 
0.009957 
0.007632 
0.007285 
0.009007 
0.009487 
0.007523 
0.006384 
0.006801 
0.000000 
0.005924 
0.004247 
0.004062 
0.005299 
0.006394 
0.007450 
0.007949 
0.009256 
0.009659 
0.008014 
0.007539 
0.000000 
0.009812 
0.000000 
0.010988 
0.011112 
0.013612 
0.000000 
0.017928 
0.000000 
0.013399 
0.009703 
0.009088 
0.000000 
0.009651 
0.009860 
0.011565 
0.011062 
0.008866 
0.008674 
0.011745 
0.000000 
0.013855 
0.013065 
0.013700 
0.000000 
0.011926 
0.011254 
0.011563 