# vtk DataFile Version 3.0
results.vtk
ASCII
DATASET RECTILINEAR_GRID
DIMENSIONS 100 100 1
X_COORDINATES 100 double
0.000000 0.010000 0.020000 0.030000 0.040000 0.050000 0.060000 0.070000 0.080000 0.090000 0.100000 0.110000 0.120000 0.130000 0.140000 0.150000 0.160000 0.170000 0.180000 0.190000 0.200000 0.210000 0.220000 0.230000 0.240000 0.250000 0.260000 0.270000 0.280000 0.290000 0.300000 0.310000 0.320000 0.330000 0.340000 0.350000 0.360000 0.370000 0.380000 0.390000 0.400000 0.410000 0.420000 0.430000 0.440000 0.450000 0.460000 0.470000 0.480000 0.490000 0.500000 0.510000 0.520000 0.530000 0.540000 0.550000 0.560000 0.570000 0.580000 0.590000 0.600000 0.610000 0.620000 0.630000 0.640000 0.650000 0.660000 0.670000 0.680000 0.690000 0.700000 0.710000 0.720000 0.730000 0.740000 0.750000 0.760000 0.770000 0.780000 0.790000 0.800000 0.810000 0.820000 0.830000 0.840000 0.850000 0.860000 0.870000 0.880000 0.890000 0.900000 0.910000 0.920000 0.930000 0.940000 0.950000 0.960000 0.970000 0.980000 0.990000 
Y_COORDINATES 100 double
0.000000 0.010000 0.020000 0.030000 0.040000 0.050000 0.060000 0.070000 0.080000 0.090000 0.100000 0.110000 0.120000 0.130000 0.140000 0.150000 0.160000 0.170000 0.180000 0.190000 0.200000 0.210000 0.220000 0.230000 0.240000 0.250000 0.260000 0.270000 0.280000 0.290000 0.300000 0.310000 0.320000 0.330000 0.340000 0.350000 0.360000 0.370000 0.380000 0.390000 0.400000 0.410000 0.420000 0.430000 0.440000 0.450000 0.460000 0.470000 0.480000 0.490000 0.500000 0.510000 0.520000 0.530000 0.540000 0.550000 0.560000 0.570000 0.580000 0.590000 0.600000 0.610000 0.620000 0.630000 0.640000 0.650000 0.660000 0.670000 0.680000 0.690000 0.700000 0.710000 0.720000 0.730000 0.740000 0.750000 0.760000 0.770000 0.780000 0.790000 0.800000 0.810000 0.820000 0.830000 0.840000 0.850000 0.860000 0.870000 0.880000 0.890000 0.900000 0.910000 0.920000 0.930000 0.940000 0.950000 0.960000 0.970000 0.980000 0.990000 
Z_COORDINATES 1 double
0
POINT_DATA 10000 
FIELD FieldData 1 
Concentração 1 10000 double 
0.161797 
0.000000 
0.173117 
0.107556 
0.000000 
0.100280 
0.132176 
0.161851 
0.000000 
0.057622 
0.055489 
0.154697 
0.000000 
0.102181 
0.000000 
0.000000 
0.000000 
0.122743 
0.000000 
0.000000 
0.141693 
0.000000 
0.000000 
0.101853 
0.150707 
0.000000 
0.057769 
0.034568 
0.095484 
0.042090 
0.036180 
0.120040 
0.140991 
0.119711 
0.033586 
0.037064 
0.137529 
0.000000 
0.055543 
0.053962 
0.000000 
0.087083 
0.126016 
0.117893 
0.028687 
0.000000 
0.008283 
0.065161 
0.000000 
0.000000 
0.000000 
0.140476 
0.000000 
0.045998 
0.000000 
0.000000 
0.000000 
0.040516 
0.179969 
0.000000 
0.150200 
0.000000 
0.100386 
0.125848 
0.117331 
0.034484 
0.034511 
0.107696 
0.054396 
0.096192 
0.029282 
0.016139 
0.000000 
0.013252 
0.012677 
0.059603 
0.000000 
0.044767 
0.000000 
0.000000 
0.015770 
0.029456 
0.099354 
0.074705 
0.168961 
0.000000 
0.119763 
0.000000 
0.058868 
0.075252 
0.000000 
0.000000 
0.076975 
0.011111 
0.010397 
0.070497 
0.000000 
0.073937 
0.022424 
0.000000 
0.182274 
0.000000 
0.000000 
0.123469 
0.000000 
0.114429 
0.000000 
0.000000 
0.102438 
0.042641 
0.112524 
0.000000 
0.110779 
0.037953 
0.077305 
0.133309 
0.141303 
0.097987 
0.079363 
0.081857 
0.122282 
0.000000 
0.128847 
0.125005 
0.000000 
0.143235 
0.048109 
0.061785 
0.000000 
0.100687 
0.073883 
0.000000 
0.000000 
0.000000 
0.063473 
0.064575 
0.000000 
0.094622 
0.023019 
0.023746 
0.067320 
0.112669 
0.000000 
0.000000 
0.054954 
0.000000 
0.013675 
0.060994 
0.081098 
0.134254 
0.000000 
0.139320 
0.070368 
0.015452 
0.000000 
0.000000 
0.009427 
0.078284 
0.000000 
0.000000 
0.148118 
0.000000 
0.115261 
0.000000 
0.000000 
0.071310 
0.076333 
0.000000 
0.109091 
0.000000 
0.062672 
0.055084 
0.025835 
0.049620 
0.028869 
0.066651 
0.059739 
0.013401 
0.000000 
0.012385 
0.052469 
0.062451 
0.000000 
0.155083 
0.000000 
0.000000 
0.081446 
0.064979 
0.037870 
0.071657 
0.118251 
0.000000 
0.063515 
0.016866 
0.016663 
0.061829 
0.000000 
0.072552 
0.054288 
0.014381 
0.000000 
0.161826 
0.096390 
0.083922 
0.071509 
0.031175 
0.060983 
0.063275 
0.037146 
0.069874 
0.000000 
0.000000 
0.084801 
0.021419 
0.064500 
0.000000 
0.000000 
0.000000 
0.082770 
0.065809 
0.000000 
0.114935 
0.091683 
0.000000 
0.155394 
0.000000 
0.116615 
0.087620 
0.113001 
0.000000 
0.062389 
0.069100 
0.080624 
0.071494 
0.033265 
0.073743 
0.105994 
0.035484 
0.019199 
0.054326 
0.066541 
0.000000 
0.117003 
0.110922 
0.028001 
0.007254 
0.045181 
0.000000 
0.062688 
0.082894 
0.000000 
0.000000 
0.075162 
0.016734 
0.000000 
0.000000 
0.022925 
0.126175 
0.000000 
0.000000 
0.131159 
0.078416 
0.038454 
0.064973 
0.076091 
0.087433 
0.120746 
0.000000 
0.086224 
0.106318 
0.073858 
0.000000 
0.093284 
0.000000 
0.103851 
0.000000 
0.064922 
0.006640 
0.000000 
0.044587 
0.000000 
0.066357 
0.112293 
0.000000 
0.121251 
0.076586 
0.034559 
0.075782 
0.113944 
0.000000 
0.070648 
0.063704 
0.030648 
0.060751 
0.060360 
0.031400 
0.067771 
0.061934 
0.000000 
0.051576 
0.142317 
0.000000 
0.114595 
0.000000 
0.072949 
0.012928 
0.009273 
0.023803 
0.067615 
0.099696 
0.168915 
0.000000 
0.066059 
0.012496 
0.029529 
0.114669 
0.000000 
0.000000 
0.077528 
0.032797 
0.063970 
0.076087 
0.090397 
0.000000 
0.100738 
0.122519 
0.000000 
0.000000 
0.117967 
0.067180 
0.018739 
0.024968 
0.070550 
0.080233 
0.072021 
0.000000 
0.000000 
0.062931 
0.060112 
0.000000 
0.060352 
0.060644 
0.068745 
0.000000 
0.051099 
0.014226 
0.014769 
0.045463 
0.015626 
0.026768 
0.117317 
0.000000 
0.079967 
0.056021 
0.012918 
0.000000 
0.054897 
0.000000 
0.000000 
0.178470 
0.000000 
0.070217 
0.057198 
0.031254 
0.075085 
0.000000 
0.000000 
0.120875 
0.071304 
0.000000 
0.073300 
0.099315 
0.039735 
0.057137 
0.071049 
0.000000 
0.064981 
0.008941 
0.000000 
0.013079 
0.046639 
0.022357 
0.068345 
0.000000 
0.077379 
0.033361 
0.061477 
0.000000 
0.000000 
0.155872 
0.039316 
0.027101 
0.064121 
0.000000 
0.000000 
0.068483 
0.067693 
0.029649 
0.048230 
0.014486 
0.040444 
0.060744 
0.074743 
0.000000 
0.110485 
0.023788 
0.011382 
0.063960 
0.000000 
0.000000 
0.000000 
0.156241 
0.036807 
0.017213 
0.051332 
0.042407 
0.075297 
0.087897 
0.077711 
0.069114 
0.068618 
0.000000 
0.125052 
0.000000 
0.085043 
0.078154 
0.000000 
0.148928 
0.000000 
0.054808 
0.015008 
0.055504 
0.000000 
0.000000 
0.091760 
0.114092 
0.080561 
0.034603 
0.068744 
0.068345 
0.024722 
0.013561 
0.030439 
0.099867 
0.040130 
0.051431 
0.020747 
0.008606 
0.000000 
0.016451 
0.069087 
0.085602 
0.108886 
0.000000 
0.048388 
0.000000 
0.020422 
0.105391 
0.000000 
0.094542 
0.107805 
0.072562 
0.000000 
0.061426 
0.070690 
0.000000 
0.164871 
0.094287 
0.034949 
0.057225 
0.066792 
0.000000 
0.055729 
0.016712 
0.020037 
0.071107 
0.063310 
0.027516 
0.046847 
0.015431 
0.013865 
0.002165 
0.029523 
0.111890 
0.086923 
0.068937 
0.056026 
0.161410 
0.000000 
0.000000 
0.070888 
0.069962 
0.086561 
0.119272 
0.081523 
0.074670 
0.000000 
0.061933 
0.022720 
0.011212 
0.053961 
0.030794 
0.034717 
0.112842 
0.000000 
0.068658 
0.028771 
0.088538 
0.180422 
0.000000 
0.214497 
0.000000 
0.060333 
0.054903 
0.000000 
0.095784 
0.048173 
0.110202 
0.000000 
0.000000 
0.076970 
0.082504 
0.122519 
0.000000 
0.074985 
0.033384 
0.058535 
0.034002 
0.048847 
0.013223 
0.000000 
0.026981 
0.105432 
0.000000 
0.108742 
0.000000 
0.107990 
0.081218 
0.000000 
0.123009 
0.069138 
0.025988 
0.068853 
0.000000 
0.108732 
0.000000 
0.095125 
0.028225 
0.016525 
0.048265 
0.000000 
0.101484 
0.000000 
0.143062 
0.033651 
0.000000 
0.000000 
0.020943 
0.060153 
0.062452 
0.000000 
0.062304 
0.064980 
0.061274 
0.036480 
0.109590 
0.000000 
0.000000 
0.075732 
0.031929 
0.062723 
0.071382 
0.060032 
0.017160 
0.022709 
0.098467 
0.000000 
0.099646 
0.000000 
0.058741 
0.052940 
0.020832 
0.057198 
0.000000 
0.000000 
0.000000 
0.151500 
0.000000 
0.168260 
0.089625 
0.070346 
0.000000 
0.000000 
0.000000 
0.077755 
0.070066 
0.000000 
0.072831 
0.068569 
0.072844 
0.000000 
0.107142 
0.077440 
0.088450 
0.000000 
0.112702 
0.086539 
0.000000 
0.000000 
0.000000 
0.000000 
0.148809 
0.037262 
0.029764 
0.093189 
0.000000 
0.096822 
0.000000 
0.151395 
0.094283 
0.090612 
0.118404 
0.000000 
0.162364 
0.101105 
0.073007 
0.025715 
0.011436 
0.007181 
0.007437 
0.013816 
0.049116 
0.033766 
0.058340 
0.034554 
0.094141 
0.000000 
0.112484 
0.000000 
0.000000 
0.000000 
0.073632 
0.110738 
0.000000 
0.092495 
0.147012 
0.000000 
0.107581 
0.066480 
0.027666 
0.049770 
0.034164 
0.107010 
0.000000 
0.068044 
0.008221 
0.000000 
0.000000 
0.000000 
0.013552 
0.048631 
0.027953 
0.055484 
0.000000 
0.052017 
0.041814 
0.110253 
0.000000 
0.118268 
0.070350 
0.000000 
0.097397 
0.000000 
0.052456 
0.053673 
0.000000 
0.106878 
0.083991 
0.068553 
0.060336 
0.000000 
0.055966 
0.032983 
0.082661 
0.125090 
0.124001 
0.000000 
0.201106 
0.000000 
0.079419 
0.029550 
0.076112 
0.132778 
0.137915 
0.080938 
0.040244 
0.069280 
0.069014 
0.000000 
0.000000 
0.149766 
0.000000 
0.000000 
0.120516 
0.117831 
0.000000 
0.109517 
0.000000 
0.186471 
0.154735 
0.133184 
0.000000 
0.064481 
0.056604 
0.032598 
0.051292 
0.032698 
0.095398 
0.000000 
0.122037 
0.000000 
0.000000 
0.159473 
0.000000 
0.000000 
0.000000 
0.081030 
0.056586 
0.028370 
0.059754 
0.060323 
0.000000 
0.050571 
0.022094 
0.013312 
0.021081 
0.049515 
0.032605 
0.086994 
0.120223 
0.080009 
0.063832 
0.000000 
0.106099 
0.078919 
0.000000 
0.154466 
0.000000 
0.000000 
0.053862 
0.013594 
0.011132 
0.067054 
0.000000 
0.110177 
0.024168 
0.007088 
0.000000 
0.000000 
0.000000 
0.020521 
0.055454 
0.028509 
0.049773 
0.028412 
0.058956 
0.043919 
0.113842 
0.000000 
0.081658 
0.064212 
0.029005 
0.047213 
0.013808 
0.015237 
0.056077 
0.077355 
0.000000 
0.067394 
0.025167 
0.061006 
0.073194 
0.080828 
0.114136 
0.000000 
0.088904 
0.156488 
0.000000 
0.000000 
0.114691 
0.037910 
0.068933 
0.000000 
0.000000 
0.000000 
0.114364 
0.074370 
0.032292 
0.062706 
0.072253 
0.043587 
0.087596 
0.150928 
0.000000 
0.069012 
0.057344 
0.037181 
0.121872 
0.000000 
0.000000 
0.134132 
0.120434 
0.075537 
0.000000 
0.050174 
0.015409 
0.011508 
0.023599 
0.064910 
0.089545 
0.000000 
0.167827 
0.080070 
0.184458 
0.000000 
0.000000 
0.121090 
0.000000 
0.104742 
0.000000 
0.078893 
0.059939 
0.034809 
0.062096 
0.058654 
0.016779 
0.009538 
0.023301 
0.100137 
0.000000 
0.063764 
0.023167 
0.050179 
0.036043 
0.076752 
0.122334 
0.106332 
0.123612 
0.079345 
0.017703 
0.000000 
0.000000 
0.029295 
0.111911 
0.000000 
0.080816 
0.063135 
0.021156 
0.000000 
0.000000 
0.057810 
0.000000 
0.067136 
0.026569 
0.067981 
0.000000 
0.069374 
0.075777 
0.000000 
0.124671 
0.076404 
0.024870 
0.008226 
0.000000 
0.009852 
0.023413 
0.062687 
0.000000 
0.067607 
0.025340 
0.061600 
0.000000 
0.000000 
0.000000 
0.112663 
0.073405 
0.000000 
0.161599 
0.139782 
0.000000 
0.099694 
0.054716 
0.154461 
0.000000 
0.158694 
0.000000 
0.000000 
0.062922 
0.023532 
0.011443 
0.043143 
0.103347 
0.000000 
0.094808 
0.023379 
0.015991 
0.014979 
0.080443 
0.000000 
0.169323 
0.000000 
0.000000 
0.082622 
0.104919 
0.031440 
0.023946 
0.049604 
0.028737 
0.063473 
0.081236 
0.000000 
0.000000 
0.126522 
0.000000 
0.000000 
0.147919 
0.085211 
0.070635 
0.077195 
0.000000 
0.117778 
0.056198 
0.103541 
0.000000 
0.000000 
0.059257 
0.017111 
0.054676 
0.000000 
0.104222 
0.065243 
0.016870 
0.014334 
0.054842 
0.000000 
0.000000 
0.000000 
0.000000 
0.107724 
0.022119 
0.000000 
0.012729 
0.055717 
0.080716 
0.000000 
0.163048 
0.000000 
0.105398 
0.020314 
0.000000 
0.058775 
0.000000 
0.106700 
0.044698 
0.114852 
0.000000 
0.065205 
0.034487 
0.124221 
0.000000 
0.000000 
0.099461 
0.022051 
0.018441 
0.066875 
0.069124 
0.033515 
0.068519 
0.072689 
0.062135 
0.030543 
0.063891 
0.079488 
0.077932 
0.075557 
0.037921 
0.098076 
0.000000 
0.139381 
0.159817 
0.000000 
0.105731 
0.000000 
0.110059 
0.044081 
0.065335 
0.074804 
0.078942 
0.062358 
0.016817 
0.095254 
0.000000 
0.094466 
0.027440 
0.017262 
0.046940 
0.021020 
0.062389 
0.000000 
0.085056 
0.088436 
0.115073 
0.087359 
0.000000 
0.080824 
0.106013 
0.000000 
0.095451 
0.000000 
0.064505 
0.074476 
0.076655 
0.083624 
0.000000 
0.000000 
0.130995 
0.000000 
0.067816 
0.052365 
0.160527 
0.000000 
0.162118 
0.000000 
0.109518 
0.083753 
0.063959 
0.029062 
0.060659 
0.066311 
0.066053 
0.000000 
0.044902 
0.000000 
0.014153 
0.062552 
0.081906 
0.093529 
0.151493 
0.000000 
0.055968 
0.014096 
0.046350 
0.000000 
0.074206 
0.114219 
0.000000 
0.000000 
0.000000 
0.053220 
0.000000 
0.020298 
0.099552 
0.000000 
0.113784 
0.000000 
0.164652 
0.040553 
0.029637 
0.119827 
0.000000 
0.158279 
0.000000 
0.058308 
0.074883 
0.000000 
0.000000 
0.081881 
0.069681 
0.000000 
0.000000 
0.062868 
0.031031 
0.065288 
0.079631 
0.000000 
0.063235 
0.037381 
0.114267 
0.000000 
0.000000 
0.117367 
0.088455 
0.083826 
0.069797 
0.021707 
0.025954 
0.075328 
0.000000 
0.000000 
0.060740 
0.035043 
0.053413 
0.029009 
0.013669 
0.054938 
0.000000 
0.047214 
0.020886 
0.057749 
0.045511 
0.103623 
0.000000 
0.107812 
0.000000 
0.118152 
0.000000 
0.109320 
0.054882 
0.095756 
0.029628 
0.025579 
0.056415 
0.033602 
0.083674 
0.128543 
0.102036 
0.122161 
0.093080 
0.117984 
0.000000 
0.000000 
0.000000 
0.118581 
0.049225 
0.101842 
0.000000 
0.092850 
0.000000 
0.054690 
0.020971 
0.045383 
0.011740 
0.000000 
0.000000 
0.029979 
0.063984 
0.070284 
0.000000 
0.105231 
0.064372 
0.016452 
0.018245 
0.067099 
0.063643 
0.036603 
0.067306 
0.086149 
0.063723 
0.014134 
0.000000 
0.000000 
0.034907 
0.113789 
0.115420 
0.000000 
0.000000 
0.080531 
0.070638 
0.000000 
0.136842 
0.099887 
0.076545 
0.037399 
0.085147 
0.000000 
0.000000 
0.115836 
0.037545 
0.062841 
0.073774 
0.075251 
0.065384 
0.000000 
0.108706 
0.000000 
0.064014 
0.030008 
0.078060 
0.000000 
0.115024 
0.088059 
0.000000 
0.155265 
0.000000 
0.062044 
0.063488 
0.082785 
0.000000 
0.112428 
0.025250 
0.078699 
0.042600 
0.076520 
0.032577 
0.089775 
0.060800 
0.013247 
0.000000 
0.029427 
0.124176 
0.000000 
0.094400 
0.033940 
0.061514 
0.071796 
0.000000 
0.085042 
0.126988 
0.000000 
0.056890 
0.058840 
0.000000 
0.061530 
0.074652 
0.000000 
0.000000 
0.000000 
0.000000 
0.000000 
0.136009 
0.212736 
0.000000 
0.088797 
0.059401 
0.000000 
0.097837 
0.033774 
0.054906 
0.020323 
0.000000 
0.000000 
0.000000 
0.000000 
0.026617 
0.116387 
0.000000 
0.060434 
0.060696 
0.064617 
0.000000 
0.048299 
0.035030 
0.122321 
0.000000 
0.050652 
0.029918 
0.081911 
0.028972 
0.000000 
0.000000 
0.000000 
0.063269 
0.000000 
0.200399 
0.000000 
0.000000 
0.091284 
0.076569 
0.000000 
0.195226 
0.000000 
0.154813 
0.110555 
0.094683 
0.000000 
0.170981 
0.000000 
0.057992 
0.025117 
0.074599 
0.000000 
0.087681 
0.127706 
0.064749 
0.133572 
0.047071 
0.090693 
0.101187 
0.077922 
0.038723 
0.069374 
0.000000 
0.000000 
0.104796 
0.067627 
0.000000 
0.133312 
0.095326 
0.093748 
0.020063 
0.000000 
0.170199 
0.000000 
0.123258 
0.000000 
0.070495 
0.001240 
0.001613 
0.071739 
0.000000 
0.104374 
0.023705 
0.000000 
0.000000 
0.010063 
0.046391 
0.067914 
0.000000 
0.150235 
0.033847 
0.072562 
0.062322 
0.077234 
0.081332 
0.058610 
0.060488 
0.056592 
0.055663 
0.057308 
0.078696 
0.000000 
0.000000 
0.073074 
0.020909 
0.053193 
0.070904 
0.023033 
0.071186 
0.067197 
0.015883 
0.015196 
0.058278 
0.028365 
0.115194 
0.000000 
0.094506 
0.014815 
0.012143 
0.015444 
0.038680 
0.022487 
0.114228 
0.000000 
0.098707 
0.018869 
0.058785 
0.000000 
0.112673 
0.014049 
0.000000 
0.000400 
0.069180 
0.000000 
0.000000 
0.234934 
0.000000 
0.088293 
0.078171 
0.118546 
0.000000 
0.000000 
0.000000 
0.000000 
0.137719 
0.000000 
0.091319 
0.110071 
0.080276 
0.027860 
0.122950 
0.000000 
0.129462 
0.000000 
0.185498 
0.000000 
0.129905 
0.000000 
0.000000 
0.132164 
0.073509 
0.021099 
0.050806 
0.048330 
0.021838 
0.031080 
0.156364 
0.000000 
0.176616 
0.000000 
0.062549 
0.170495 
0.000000 
0.119667 
0.085104 
0.000000 
0.065919 
0.000817 
0.014851 
0.126200 
0.000000 
0.080429 
0.066848 
0.009382 
0.000000 
0.000000 
0.000000 
0.014189 
0.113134 
0.000000 
0.124357 
0.000000 
0.190320 
0.000000 
0.000000 
0.085350 
0.071261 
0.015809 
0.014711 
0.060831 
0.021386 
0.072770 
0.075448 
0.022061 
0.071370 
0.124535 
0.000000 
0.121983 
0.000000 
0.000000 
0.130373 
0.127429 
0.000000 
0.174724 
0.000000 
0.168797 
0.027544 
0.011906 
0.066112 
0.070658 
0.018908 
0.058741 
0.000000 
0.122369 
0.074373 
0.016609 
0.015291 
0.112457 
0.000000 
0.066507 
0.060840 
0.014217 
0.011751 
0.073959 
0.128204 
0.000000 
0.000000 
0.127168 
0.000000 
0.126491 
0.086727 
0.086311 
0.136651 
0.000000 
0.085915 
0.127050 
0.087011 
0.000000 
0.000000 
0.132606 
0.000000 
0.181601 
0.095212 
0.137939 
0.000000 
0.000000 
0.090880 
0.132042 
0.136439 
0.000000 
0.000000 
0.061963 
0.009005 
0.014663 
0.071747 
0.132714 
0.000000 
0.239871 
0.000000 
0.115060 
0.020484 
0.048648 
0.120895 
0.036240 
0.083360 
0.130963 
0.020863 
0.003734 
0.066666 
0.000000 
0.191179 
0.091026 
0.000000 
0.065624 
0.014213 
0.055381 
0.008006 
0.000000 
0.023526 
0.118794 
0.094123 
0.000000 
0.000000 
0.205880 
0.000000 
0.145746 
0.000000 
0.070368 
0.061602 
0.000000 
0.066670 
0.075609 
0.076265 
0.071504 
0.000000 
0.000000 
0.127270 
0.085295 
0.082348 
0.131877 
0.000000 
0.000000 
0.237707 
0.000000 
0.179139 
0.000000 
0.062615 
0.066077 
0.000000 
0.000000 
0.071407 
0.024604 
0.117111 
0.080771 
0.000000 
0.116958 
0.017516 
0.029298 
0.117568 
0.075242 
0.000000 
0.111479 
0.015121 
0.012204 
0.021788 
0.072801 
0.072207 
0.025057 
0.112930 
0.000000 
0.118524 
0.030974 
0.072753 
0.075532 
0.069137 
0.000000 
0.129566 
0.150224 
0.000000 
0.145358 
0.133315 
0.000000 
0.000000 
0.132196 
0.000000 
0.136896 
0.079032 
0.000000 
0.087514 
0.137299 
0.135334 
0.021225 
0.005094 
0.065428 
0.000000 
0.000000 
0.000000 
0.000000 
0.184694 
0.039753 
0.068121 
0.188374 
0.000000 
0.138555 
0.000000 
0.000000 
0.071903 
0.011634 
0.075819 
0.000000 
0.000000 
0.136363 
0.000000 
0.069893 
0.060865 
0.000000 
0.055366 
0.008118 
0.057815 
0.000000 
0.127853 
0.141492 
0.000000 
0.198654 
0.000000 
0.192346 
0.000000 
0.067699 
0.019636 
0.061919 
0.070125 
0.000000 
0.000000 
0.072441 
0.075293 
0.073428 
0.084888 
0.000000 
0.086411 
0.087272 
0.136291 
0.137239 
0.000000 
0.000000 
0.089507 
0.063551 
0.010963 
0.020002 
0.121622 
0.000000 
0.070772 
0.061904 
0.000000 
0.080918 
0.181052 
0.000000 
0.080996 
0.118182 
0.000000 
0.071265 
0.116807 
0.000000 
0.067361 
0.070936 
0.076619 
0.077185 
0.021945 
0.007257 
0.019115 
0.112288 
0.000000 
0.117119 
0.000000 
0.062789 
0.029781 
0.173661 
0.000000 
0.192866 
0.000000 
0.000000 
0.085875 
0.126901 
0.077263 
0.036286 
0.129046 
0.092172 
0.092973 
0.142956 
0.143493 
0.000000 
0.000000 
0.077134 
0.016555 
0.066963 
0.080248 
0.082452 
0.140445 
0.000000 
0.000000 
0.128933 
0.000000 
0.000000 
0.000000 
0.151620 
0.000000 
0.000000 
0.077797 
0.022319 
0.077925 
0.140352 
0.000000 
0.077176 
0.070618 
0.011114 
0.008883 
0.055040 
0.007989 
0.000000 
0.019259 
0.117363 
0.000000 
0.086575 
0.187717 
0.000000 
0.193166 
0.000000 
0.131957 
0.025808 
0.058700 
0.020477 
0.017894 
0.076199 
0.127065 
0.035503 
0.065570 
0.034860 
0.124376 
0.000000 
0.182115 
0.000000 
0.000000 
0.077834 
0.086784 
0.136016 
0.077913 
0.021720 
0.016026 
0.058918 
0.029736 
0.068424 
0.016020 
0.010142 
0.061019 
0.071221 
0.000000 
0.000000 
0.131721 
0.000000 
0.112643 
0.015730 
0.024427 
0.117045 
0.079757 
0.000000 
0.000000 
0.000000 
0.136228 
0.070790 
0.011625 
0.015418 
0.066839 
0.074460 
0.066042 
0.015574 
0.068766 
0.000000 
0.192841 
0.000000 
0.137330 
0.081779 
0.072909 
0.000000 
0.076068 
0.123509 
0.000000 
0.000000 
0.000000 
0.000000 
0.000000 
0.207642 
0.000000 
0.141537 
0.077927 
0.000000 
0.116905 
0.021027 
0.018960 
0.085891 
0.133594 
0.095705 
0.141822 
0.150980 
0.142835 
0.098048 
0.000000 
0.147139 
0.087461 
0.132047 
0.000000 
0.136673 
0.077780 
0.026382 
0.063320 
0.014622 
0.000000 
0.000000 
0.000000 
0.009707 
0.067213 
0.084077 
0.072495 
0.072502 
0.000000 
0.000000 
0.140839 
0.000000 
0.130802 
0.073024 
0.000000 
0.127783 
0.081736 
0.082954 
0.000000 
0.183039 
0.000000 
0.174147 
0.000000 
0.173515 
0.000000 
0.127329 
0.076735 
0.026835 
0.122514 
0.000000 
0.000000 
0.130426 
0.126665 
0.000000 
0.124386 
0.088944 
0.067821 
0.010655 
0.009686 
0.010650 
0.067614 
0.085453 
0.086414 
0.122320 
0.023994 
0.003521 
0.056758 
0.000000 
0.072720 
0.081927 
0.145487 
0.000000 
0.000000 
0.000000 
0.066837 
0.016853 
0.066540 
0.000000 
0.060683 
0.011974 
0.080793 
0.000000 
0.200642 
0.000000 
0.083050 
0.077343 
0.076798 
0.076771 
0.073341 
0.000000 
0.182460 
0.150839 
0.000000 
0.000000 
0.000000 
0.213850 
0.000000 
0.000000 
0.145365 
0.127287 
0.000000 
0.057861 
0.021027 
0.127330 
0.000000 
0.000000 
0.000000 
0.000000 
0.000000 
0.137081 
0.000000 
0.146626 
0.000000 
0.000000 
0.000000 
0.000000 
0.081445 
0.123476 
0.000000 
0.117769 
0.015078 
0.009556 
0.060275 
0.070586 
0.000000 
0.000000 
0.075246 
0.016010 
0.066214 
0.071867 
0.030687 
0.117789 
0.000000 
0.081455 
0.187302 
0.000000 
0.000000 
0.142297 
0.000000 
0.000000 
0.196706 
0.000000 
0.123371 
0.029873 
0.068522 
0.080315 
0.076877 
0.072264 
0.000000 
0.125965 
0.130395 
0.000000 
0.000000 
0.183671 
0.000000 
0.000000 
0.000000 
0.071424 
0.060775 
0.010368 
0.020282 
0.122545 
0.000000 
0.000000 
0.061065 
0.001550 
0.014465 
0.067881 
0.080402 
0.077780 
0.083191 
0.000000 
0.187622 
0.091090 
0.082929 
0.082412 
0.081309 
0.066847 
0.011794 
0.021102 
0.131939 
0.000000 
0.000000 
0.182353 
0.086357 
0.000000 
0.000000 
0.135893 
0.085748 
0.122742 
0.000000 
0.079103 
0.147058 
0.000000 
0.000000 
0.000000 
0.254194 
0.000000 
0.000000 
0.085474 
0.062456 
0.015539 
0.072115 
0.000000 
0.137482 
0.086442 
0.077795 
0.074959 
0.071384 
0.076842 
0.000000 
0.141625 
0.136793 
0.086446 
0.080928 
0.072507 
0.077460 
0.000000 
0.242029 
0.000000 
0.072322 
0.061167 
0.000000 
0.075274 
0.126843 
0.000000 
0.066508 
0.001224 
0.003940 
0.019388 
0.059157 
0.024793 
0.067901 
0.078026 
0.000000 
0.000000 
0.000000 
0.096743 
0.188796 
0.000000 
0.192817 
0.000000 
0.071044 
0.011402 
0.065296 
0.000000 
0.000000 
0.125459 
0.070919 
0.017284 
0.021706 
0.076942 
0.132767 
0.104209 
0.189590 
0.000000 
0.182560 
0.079955 
0.000000 
0.060577 
0.062134 
0.000000 
0.176281 
0.079469 
0.010747 
0.009025 
0.062753 
0.088552 
0.000000 
0.000000 
0.076488 
0.123254 
0.000000 
0.134436 
0.000000 
0.000000 
0.000000 
0.078272 
0.026333 
0.123386 
0.000000 
0.141321 
0.127982 
0.000000 
0.082156 
0.132060 
0.144411 
0.000000 
0.000000 
0.076236 
0.067871 
0.021761 
0.074193 
0.000000 
0.206786 
0.204231 
0.000000 
0.202949 
0.000000 
0.076466 
0.011058 
0.016088 
0.130811 
0.000000 
0.146074 
0.078882 
0.023005 
0.000000 
0.001551 
0.015160 
0.121832 
0.000000 
0.000000 
0.067591 
0.011729 
0.016033 
0.071754 
0.000000 
0.000000 
0.000000 
0.081018 
0.016161 
0.065397 
0.067392 
0.034232 
0.117459 
0.019185 
0.000000 
0.013568 
0.112233 
0.000000 
0.068754 
0.075750 
0.081105 
0.132772 
0.000000 
0.132071 
0.074186 
0.000000 
0.233637 
0.000000 
0.117887 
0.014659 
0.000000 
0.009601 
0.070333 
0.125410 
0.000000 
0.063093 
0.019920 
0.062796 
0.075663 
0.000000 
0.000000 
0.000000 
0.182890 
0.000000 
0.067256 
0.061456 
0.014794 
0.014959 
0.112049 
0.000000 
0.066726 
0.009734 
0.056657 
0.000000 
0.178065 
0.000000 
0.127231 
0.017691 
0.025771 
0.123737 
0.100236 
0.000000 
0.000000 
0.000000 
0.096627 
0.129219 
0.000000 
0.000000 
0.085961 
0.022263 
0.072017 
0.126629 
0.000000 
0.127846 
0.000000 
0.126599 
0.027452 
0.075663 
0.067738 
0.025647 
0.123800 
0.000000 
0.000000 
0.000000 
0.150184 
0.000000 
0.066217 
0.009576 
0.061422 
0.000000 
0.000000 
0.000000 
0.000000 
0.131858 
0.000000 
0.000000 
0.000000 
0.025816 
0.136284 
0.135812 
0.021947 
0.011439 
0.061491 
0.022038 
0.082525 
0.147549 
0.000000 
0.077114 
0.011153 
0.061035 
0.000000 
0.112553 
0.000000 
0.056578 
0.008145 
0.057180 
0.000000 
0.177308 
0.089417 
0.000000 
0.000000 
0.076205 
0.072741 
0.021746 
0.017004 
0.122837 
0.000000 
0.123092 
0.020387 
0.003438 
0.000000 
0.000000 
0.015437 
0.071678 
0.072733 
0.029984 
0.113182 
0.000000 
0.068007 
0.075928 
0.076405 
0.077157 
0.080606 
0.067854 
0.016854 
0.020048 
0.057384 
0.009947 
0.015190 
0.066035 
0.065219 
0.009885 
0.013943 
0.112752 
0.000000 
0.182469 
0.084862 
0.017113 
0.067186 
0.000000 
0.134347 
0.000000 
0.258262 
0.000000 
0.144023 
0.000000 
0.187541 
0.000000 
0.072173 
0.012089 
0.070868 
0.000000 
0.126519 
0.026702 
0.071973 
0.076333 
0.080728 
0.000000 
0.000000 
0.063526 
0.029702 
0.127567 
0.140535 
0.000000 
0.076960 
0.065806 
0.009356 
0.000000 
0.009149 
0.068077 
0.095286 
0.146773 
0.191591 
0.000000 
0.056749 
0.013646 
0.005170 
0.071752 
0.000000 
0.000000 
0.077610 
0.075517 
0.000000 
0.076700 
0.082779 
0.146824 
0.000000 
0.077950 
0.012043 
0.014962 
0.057933 
0.023280 
0.057168 
0.008146 
0.000000 
0.014212 
0.122353 
0.000000 
0.133224 
0.085828 
0.072548 
0.022007 
0.070971 
0.066711 
0.016827 
0.075356 
0.000000 
0.071785 
0.021074 
0.061046 
0.009075 
0.001555 
0.062049 
0.000000 
0.135754 
0.128520 
0.000000 
0.114839 
0.030071 
0.068023 
0.021054 
0.062966 
0.000000 
0.071723 
0.075364 
0.122200 
0.000000 
0.058177 
0.014664 
0.061287 
0.000000 
0.055137 
0.001924 
0.018637 
0.117404 
0.000000 
0.000000 
0.065806 
0.069991 
0.000000 
0.089750 
0.183825 
0.000000 
0.000000 
0.145992 
0.000000 
0.090433 
0.077139 
0.066739 
0.015273 
0.067076 
0.000000 
0.125573 
0.020845 
0.061973 
0.000000 
0.121510 
0.000000 
0.125792 
0.020010 
0.057746 
0.000000 
0.071606 
0.066272 
0.010029 
0.000000 
0.000000 
0.000000 
0.000000 
0.019575 
0.122899 
0.000000 
0.000000 
0.132073 
0.000000 
0.113064 
0.025236 
0.077095 
0.000000 
0.000000 
0.085477 
0.126738 
0.000000 
0.131478 
0.000000 
0.000000 
0.000000 
0.095883 
0.077372 
0.067705 
0.024150 
0.058123 
0.013617 
0.000000 
0.000000 
0.005430 
0.079075 
0.000000 
0.000000 
0.136874 
0.081367 
0.071784 
0.000000 
0.000000 
0.071436 
0.072017 
0.076664 
0.031411 
0.122283 
0.000000 
0.066390 
0.015970 
0.080340 
0.190392 
0.000000 
0.000000 
0.175187 
0.049048 
0.128772 
0.000000 
0.068036 
0.025473 
0.121282 
0.080294 
0.000000 
0.000000 
0.177780 
0.033790 
0.058207 
0.018727 
0.056387 
0.008043 
0.000000 
0.000000 
0.014315 
0.066649 
0.069654 
0.010515 
0.010796 
0.069777 
0.068226 
0.000000 
0.132527 
0.136157 
0.087489 
0.000000 
0.072494 
0.067090 
0.000000 
0.058323 
0.024391 
0.116994 
0.000000 
0.057048 
0.013798 
0.056444 
0.020717 
0.075924 
0.071224 
0.010720 
0.009858 
0.061390 
0.016406 
0.010317 
0.000000 
0.000000 
0.000000 
0.000000 
0.000000 
0.057216 
0.000000 
0.131414 
0.126619 
0.026711 
0.168595 
0.000000 
0.127152 
0.081336 
0.082076 
0.080874 
0.068350 
0.000000 
0.127000 
0.085410 
0.082258 
0.133179 
0.000000 
0.192718 
0.000000 
0.000000 
0.117876 
0.000000 
0.057550 
0.013561 
0.055973 
0.019393 
0.068361 
0.089762 
0.137917 
0.000000 
0.000000 
0.072571 
0.080559 
0.130287 
0.076962 
0.000000 
0.130654 
0.131325 
0.000000 
0.000000 
0.074583 
0.066252 
0.000000 
0.000000 
0.000000 
0.183175 
0.000000 
0.188245 
0.000000 
0.000000 
0.080950 
0.072693 
0.000000 
0.077061 
0.085518 
0.186545 
0.000000 
0.122965 
0.000000 
0.057325 
0.013523 
0.000000 
0.000000 
0.000000 
0.000000 
0.014301 
0.060565 
0.009659 
0.009988 
0.061184 
0.019676 
0.063043 
0.075538 
0.000000 
0.080934 
0.121485 
0.021214 
0.021162 
0.116780 
0.029671 
0.063475 
0.024624 
0.057063 
0.008632 
0.000418 
0.001370 
0.014888 
0.116164 
0.000000 
0.057188 
0.015112 
0.071104 
0.079514 
0.067148 
0.019303 
0.056753 
0.013525 
0.000000 
0.000000 
0.018989 
0.117232 
0.084626 
0.000000 
0.061937 
0.035390 
0.128499 
0.000000 
0.000000 
0.076688 
0.067390 
0.020537 
0.063477 
0.079796 
0.000000 
0.077831 
0.033027 
0.130615 
0.000000 
0.000000 
0.137260 
0.035393 
0.113216 
0.023919 
0.057643 
0.000000 
0.116693 
0.000000 
0.123744 
0.095248 
0.000000 
0.131737 
0.027042 
0.073712 
0.000000 
0.082169 
0.127666 
0.000000 
0.000000 
0.126826 
0.074940 
0.011087 
0.010030 
0.065893 
0.075707 
0.072581 
0.030896 
0.128554 
0.000000 
0.000000 
0.141509 
0.078233 
0.080579 
0.000000 
0.071026 
0.072173 
0.000000 
0.000000 
0.079348 
0.062373 
0.018986 
0.056596 
0.008290 
0.000000 
0.000000 
0.008230 
0.056410 
0.000000 
0.061066 
0.065796 
0.000000 
0.057994 
0.019680 
0.067475 
0.080130 
0.122303 
0.000000 
0.063195 
0.071914 
0.000000 
0.132573 
0.000000 
0.071893 
0.010985 
0.010080 
0.060169 
0.014832 
0.058014 
0.000000 
0.117356 
0.020084 
0.062414 
0.000000 
0.000000 
0.000000 
0.118773 
0.000000 
0.112918 
0.019722 
0.011346 
0.062755 
0.000000 
0.121843 
0.071465 
0.016834 
0.014484 
0.081705 
0.000000 
0.135836 
0.071906 
0.000000 
0.062337 
0.020541 
0.068133 
0.000000 
0.136441 
0.084096 
0.096053 
0.188362 
0.000000 
0.083247 
0.069789 
0.000000 
0.063683 
0.020528 
0.067238 
0.079400 
0.121802 
0.000000 
0.122684 
0.000000 
0.081132 
0.069355 
0.089573 
0.000000 
0.086664 
0.086591 
0.131387 
0.077054 
0.021056 
0.005251 
0.000000 
0.000000 
0.000000 
0.000000 
0.000000 
0.004450 
0.071361 
0.000000 
0.133025 
0.082306 
0.000000 
0.121632 
0.074855 
0.011347 
0.010445 
0.066800 
0.074587 
0.011803 
0.009424 
0.057263 
0.000000 
0.057133 
0.009103 
0.009263 
0.056132 
0.019457 
0.061962 
0.021094 
0.075341 
0.120857 
0.024399 
0.057956 
0.000000 
0.116677 
0.000000 
0.113152 
0.025700 
0.077726 
0.000000 
0.150764 
0.000000 
0.130774 
0.021614 
0.066416 
0.000000 
0.071376 
0.026043 
0.122078 
0.080165 
0.017185 
0.016265 
0.122202 
0.000000 
0.124877 
0.043710 
0.169688 
0.000000 
0.123006 
0.080397 
0.080708 