# vtk DataFile Version 3.0
results.vtk
ASCII
DATASET RECTILINEAR_GRID
DIMENSIONS 100 100 1
X_COORDINATES 100 double
0.000000 0.010000 0.020000 0.030000 0.040000 0.050000 0.060000 0.070000 0.080000 0.090000 0.100000 0.110000 0.120000 0.130000 0.140000 0.150000 0.160000 0.170000 0.180000 0.190000 0.200000 0.210000 0.220000 0.230000 0.240000 0.250000 0.260000 0.270000 0.280000 0.290000 0.300000 0.310000 0.320000 0.330000 0.340000 0.350000 0.360000 0.370000 0.380000 0.390000 0.400000 0.410000 0.420000 0.430000 0.440000 0.450000 0.460000 0.470000 0.480000 0.490000 0.500000 0.510000 0.520000 0.530000 0.540000 0.550000 0.560000 0.570000 0.580000 0.590000 0.600000 0.610000 0.620000 0.630000 0.640000 0.650000 0.660000 0.670000 0.680000 0.690000 0.700000 0.710000 0.720000 0.730000 0.740000 0.750000 0.760000 0.770000 0.780000 0.790000 0.800000 0.810000 0.820000 0.830000 0.840000 0.850000 0.860000 0.870000 0.880000 0.890000 0.900000 0.910000 0.920000 0.930000 0.940000 0.950000 0.960000 0.970000 0.980000 0.990000 
Y_COORDINATES 100 double
0.000000 0.010000 0.020000 0.030000 0.040000 0.050000 0.060000 0.070000 0.080000 0.090000 0.100000 0.110000 0.120000 0.130000 0.140000 0.150000 0.160000 0.170000 0.180000 0.190000 0.200000 0.210000 0.220000 0.230000 0.240000 0.250000 0.260000 0.270000 0.280000 0.290000 0.300000 0.310000 0.320000 0.330000 0.340000 0.350000 0.360000 0.370000 0.380000 0.390000 0.400000 0.410000 0.420000 0.430000 0.440000 0.450000 0.460000 0.470000 0.480000 0.490000 0.500000 0.510000 0.520000 0.530000 0.540000 0.550000 0.560000 0.570000 0.580000 0.590000 0.600000 0.610000 0.620000 0.630000 0.640000 0.650000 0.660000 0.670000 0.680000 0.690000 0.700000 0.710000 0.720000 0.730000 0.740000 0.750000 0.760000 0.770000 0.780000 0.790000 0.800000 0.810000 0.820000 0.830000 0.840000 0.850000 0.860000 0.870000 0.880000 0.890000 0.900000 0.910000 0.920000 0.930000 0.940000 0.950000 0.960000 0.970000 0.980000 0.990000 
Z_COORDINATES 1 double
0
POINT_DATA 10000 
FIELD FieldData 1 
Concentração 1 10000 double 
0.153494 
0.520662 
0.188227 
0.093124 
0.500347 
0.088882 
0.136248 
0.182858 
0.403840 
0.059269 
0.033131 
0.176593 
0.408041 
0.116539 
0.451461 
0.507394 
0.461150 
0.129057 
0.447985 
0.448923 
0.143149 
0.558733 
0.460933 
0.089236 
0.173280 
0.410959 
0.059380 
0.020308 
0.112495 
0.024900 
0.019026 
0.128296 
0.143033 
0.128235 
0.018101 
0.021247 
0.167097 
0.402759 
0.060585 
0.059967 
0.389160 
0.080715 
0.132282 
0.127663 
0.016681 
0.000000 
0.000000 
0.067598 
0.448527 
0.515150 
0.570504 
0.140846 
0.393197 
0.055418 
0.000000 
0.000000 
0.000000 
0.022436 
0.192460 
0.528115 
0.145863 
0.504245 
0.088895 
0.132243 
0.127368 
0.018335 
0.018339 
0.120322 
0.032950 
0.112712 
0.016656 
0.007906 
0.000000 
0.006588 
0.003311 
0.063827 
0.387734 
0.055131 
0.000000 
0.000000 
0.007835 
0.016685 
0.113708 
0.045399 
0.185143 
0.517800 
0.128279 
0.392511 
0.061595 
0.072850 
0.459438 
0.553283 
0.075331 
0.001762 
0.001169 
0.071310 
0.497759 
0.072583 
0.012494 
0.000000 
0.193248 
0.519425 
0.461339 
0.129372 
0.455292 
0.124502 
0.451929 
0.454977 
0.116690 
0.024937 
0.121975 
0.466445 
0.121419 
0.021430 
0.073517 
0.136521 
0.141075 
0.086116 
0.074184 
0.076892 
0.129079 
0.463747 
0.133023 
0.129900 
0.416051 
0.168884 
0.028742 
0.062651 
0.399661 
0.116157 
0.072390 
0.451572 
0.503112 
0.451236 
0.065004 
0.065519 
0.403356 
0.112222 
0.012380 
0.012800 
0.068340 
0.123985 
0.455882 
0.451337 
0.060474 
0.000000 
0.006954 
0.064385 
0.076768 
0.136867 
0.519618 
0.140464 
0.069256 
0.007542 
0.000000 
0.000000 
0.000952 
0.073703 
0.523504 
0.571880 
0.145142 
0.456429 
0.124744 
0.451441 
0.447809 
0.069576 
0.073165 
0.451261 
0.120889 
0.399818 
0.064915 
0.060421 
0.015717 
0.056686 
0.016531 
0.068246 
0.063998 
0.006938 
0.000000 
0.006665 
0.059541 
0.064873 
0.404024 
0.176670 
0.467380 
0.503703 
0.076779 
0.065587 
0.021517 
0.069744 
0.127760 
0.454737 
0.065127 
0.007801 
0.007762 
0.064571 
0.446944 
0.072125 
0.060170 
0.007204 
0.420930 
0.180739 
0.085569 
0.077609 
0.069698 
0.017193 
0.064180 
0.065049 
0.021204 
0.067209 
0.462925 
0.554827 
0.079754 
0.009532 
0.065302 
0.459905 
0.565875 
0.511150 
0.077225 
0.065811 
0.396876 
0.124632 
0.082122 
0.459872 
0.176728 
0.412419 
0.125258 
0.080801 
0.124131 
0.396362 
0.064708 
0.068906 
0.076595 
0.069706 
0.017999 
0.072368 
0.119886 
0.020735 
0.008923 
0.060091 
0.068173 
0.396887 
0.127368 
0.123460 
0.016306 
0.000000 
0.055126 
0.387368 
0.064856 
0.077274 
0.510916 
0.506963 
0.072813 
0.008012 
0.000000 
0.000000 
0.012495 
0.132230 
0.574615 
0.527661 
0.133773 
0.073803 
0.021704 
0.065548 
0.073174 
0.080764 
0.128547 
0.452336 
0.080378 
0.119983 
0.072535 
0.395765 
0.111858 
0.395198 
0.119242 
0.446743 
0.067685 
0.000000 
0.000000 
0.055087 
0.387323 
0.068094 
0.123913 
0.459186 
0.128714 
0.073166 
0.018392 
0.072981 
0.124339 
0.400967 
0.069381 
0.065118 
0.017173 
0.064191 
0.064040 
0.017497 
0.068532 
0.064714 
0.387394 
0.059266 
0.168538 
0.408047 
0.124574 
0.448004 
0.072014 
0.003212 
0.000000 
0.012628 
0.066421 
0.088500 
0.185142 
0.466828 
0.065865 
0.002805 
0.016614 
0.124602 
0.513972 
0.507116 
0.073559 
0.017822 
0.065222 
0.073080 
0.081722 
0.503788 
0.088957 
0.129117 
0.506600 
0.459822 
0.127718 
0.068264 
0.008617 
0.013078 
0.069432 
0.076437 
0.069888 
0.447440 
0.447202 
0.064923 
0.063963 
0.388184 
0.064139 
0.064093 
0.068870 
0.395980 
0.057136 
0.006841 
0.007264 
0.055154 
0.007658 
0.013654 
0.127341 
0.452457 
0.076390 
0.060685 
0.006770 
0.000000 
0.060425 
0.459447 
0.569899 
0.192068 
0.405770 
0.069250 
0.061030 
0.017373 
0.072780 
0.499542 
0.463524 
0.128565 
0.069582 
0.392629 
0.072347 
0.115757 
0.024271 
0.061135 
0.071490 
0.443476 
0.067570 
0.000341 
0.000000 
0.006689 
0.055633 
0.012473 
0.068657 
0.447981 
0.073532 
0.017908 
0.062356 
0.455617 
0.514429 
0.178786 
0.021974 
0.013808 
0.065283 
0.446821 
0.443399 
0.068744 
0.068515 
0.016920 
0.056154 
0.006963 
0.024285 
0.062267 
0.072623 
0.451349 
0.123261 
0.012544 
0.001915 
0.065105 
0.459487 
0.560229 
0.479359 
0.177011 
0.021033 
0.008001 
0.057182 
0.024994 
0.070983 
0.080844 
0.073721 
0.068839 
0.068705 
0.393975 
0.131828 
0.506788 
0.077977 
0.073753 
0.454973 
0.174696 
0.399882 
0.060283 
0.007339 
0.060500 
0.450409 
0.499076 
0.084154 
0.124498 
0.076547 
0.018510 
0.068781 
0.068693 
0.012992 
0.003667 
0.016983 
0.115885 
0.024330 
0.057254 
0.011588 
0.000100 
0.000000 
0.007928 
0.068956 
0.080186 
0.120882 
0.399375 
0.056375 
0.000000 
0.011870 
0.119611 
0.456054 
0.085080 
0.120416 
0.072035 
0.388579 
0.064436 
0.069485 
0.459014 
0.183823 
0.084900 
0.018559 
0.061026 
0.068220 
0.392346 
0.060621 
0.007720 
0.009172 
0.071502 
0.065215 
0.016112 
0.055816 
0.007432 
0.006964 
0.000000 
0.016901 
0.123713 
0.080582 
0.066867 
0.033303 
0.180649 
0.518550 
0.456484 
0.069416 
0.069148 
0.080521 
0.128119 
0.076938 
0.072757 
0.443036 
0.064641 
0.012341 
0.001883 
0.058054 
0.017052 
0.018468 
0.123962 
0.451354 
0.068676 
0.014334 
0.080971 
0.192750 
0.534552 
0.240755 
0.416226 
0.062104 
0.060282 
0.394852 
0.112658 
0.028850 
0.121252 
0.454882 
0.444607 
0.073415 
0.077094 
0.129113 
0.459646 
0.070745 
0.017912 
0.061458 
0.020221 
0.056387 
0.006754 
0.000000 
0.016100 
0.119754 
0.454219 
0.120813 
0.403979 
0.120537 
0.076747 
0.452099 
0.131303 
0.068852 
0.013400 
0.068822 
0.450827 
0.120822 
0.403231 
0.112382 
0.016213 
0.008082 
0.056137 
0.391450 
0.116478 
0.407725 
0.170876 
0.020363 
0.000000 
0.000000 
0.012059 
0.064121 
0.064816 
0.391845 
0.064864 
0.067643 
0.064510 
0.021104 
0.121017 
0.462804 
0.499718 
0.072935 
0.017581 
0.064935 
0.071743 
0.064040 
0.008084 
0.012284 
0.115468 
0.399761 
0.115887 
0.391768 
0.063621 
0.059746 
0.011916 
0.061052 
0.451201 
0.503114 
0.458938 
0.173487 
0.424538 
0.184852 
0.081402 
0.069208 
0.447451 
0.503003 
0.456319 
0.073642 
0.069200 
0.443237 
0.072168 
0.068827 
0.072087 
0.403753 
0.120155 
0.073542 
0.081121 
0.452126 
0.123976 
0.080361 
0.504507 
0.527160 
0.568793 
0.475814 
0.172555 
0.021271 
0.016894 
0.111826 
0.398678 
0.113009 
0.407397 
0.175511 
0.084944 
0.081760 
0.125766 
0.413056 
0.180921 
0.089008 
0.070066 
0.013237 
0.002311 
0.000000 
0.000000 
0.007002 
0.056534 
0.020267 
0.061529 
0.020335 
0.112042 
0.399571 
0.123901 
0.506515 
0.510125 
0.448124 
0.072329 
0.123376 
0.451875 
0.084372 
0.172120 
0.411551 
0.120413 
0.068019 
0.016284 
0.056725 
0.020259 
0.120243 
0.454740 
0.068609 
0.000000 
0.000000 
0.000000 
0.000000 
0.007019 
0.056331 
0.016350 
0.060646 
0.387314 
0.057474 
0.024797 
0.121229 
0.458983 
0.127754 
0.069331 
0.392240 
0.115137 
0.391317 
0.059518 
0.059944 
0.395566 
0.120269 
0.079739 
0.068894 
0.064143 
0.387801 
0.060709 
0.017949 
0.077263 
0.131839 
0.129639 
0.420416 
0.232457 
0.467626 
0.074125 
0.014603 
0.073019 
0.136427 
0.139953 
0.074697 
0.022296 
0.068970 
0.068923 
0.446991 
0.501686 
0.174830 
0.455704 
0.455765 
0.128513 
0.127598 
0.400555 
0.120932 
0.463984 
0.196610 
0.149194 
0.134481 
0.405050 
0.065411 
0.060929 
0.019878 
0.057265 
0.019725 
0.112440 
0.404190 
0.128950 
0.507742 
0.467445 
0.177945 
0.475998 
0.567443 
0.511021 
0.076677 
0.060786 
0.016469 
0.063917 
0.064177 
0.387331 
0.057015 
0.012059 
0.003743 
0.011662 
0.056492 
0.017814 
0.080648 
0.128463 
0.076403 
0.065275 
0.395976 
0.119819 
0.074115 
0.408813 
0.176490 
0.458837 
0.443716 
0.059909 
0.006781 
0.002437 
0.068147 
0.451466 
0.123130 
0.012856 
0.000000 
0.000000 
0.000000 
0.000000 
0.011876 
0.060578 
0.016533 
0.056682 
0.016415 
0.061671 
0.025528 
0.124329 
0.451981 
0.076954 
0.065362 
0.016645 
0.055801 
0.006962 
0.007255 
0.060735 
0.075583 
0.443908 
0.068355 
0.013258 
0.064342 
0.072319 
0.076682 
0.124410 
0.401894 
0.081106 
0.177093 
0.474988 
0.508480 
0.124451 
0.021357 
0.066870 
0.463413 
0.559048 
0.463385 
0.124501 
0.072565 
0.017739 
0.064859 
0.071889 
0.023476 
0.080761 
0.175339 
0.404329 
0.068884 
0.061062 
0.021150 
0.128868 
0.515581 
0.465827 
0.136657 
0.128394 
0.072993 
0.392023 
0.056790 
0.007263 
0.002453 
0.012537 
0.065548 
0.081488 
0.514374 
0.184666 
0.047030 
0.193970 
0.582144 
0.520012 
0.128600 
0.396586 
0.119394 
0.447518 
0.076029 
0.062072 
0.020538 
0.064753 
0.063371 
0.007986 
0.000590 
0.012487 
0.115940 
0.400345 
0.065264 
0.012477 
0.056770 
0.021014 
0.073352 
0.129089 
0.092747 
0.129583 
0.076097 
0.008496 
0.000000 
0.000000 
0.016869 
0.123725 
0.451910 
0.076661 
0.065026 
0.012097 
0.000000 
0.000000 
0.063454 
0.442738 
0.068267 
0.013722 
0.068491 
0.443259 
0.068985 
0.072981 
0.452316 
0.131769 
0.073257 
0.013064 
0.000000 
0.000000 
0.001242 
0.012558 
0.064858 
0.442871 
0.068477 
0.013283 
0.064486 
0.446808 
0.498559 
0.455180 
0.123882 
0.070306 
0.408283 
0.180702 
0.140542 
0.409156 
0.113760 
0.032901 
0.176462 
0.470725 
0.179815 
0.454830 
0.443803 
0.064897 
0.012573 
0.002009 
0.025180 
0.117068 
0.407152 
0.112234 
0.012483 
0.007499 
0.004448 
0.076404 
0.510698 
0.187040 
0.456903 
0.452242 
0.077301 
0.119421 
0.017425 
0.012738 
0.056511 
0.016494 
0.065141 
0.076791 
0.503149 
0.459833 
0.130319 
0.523229 
0.575396 
0.145116 
0.078004 
0.069321 
0.073518 
0.455452 
0.125647 
0.033438 
0.117073 
0.450276 
0.443454 
0.063619 
0.008090 
0.060233 
0.395923 
0.119354 
0.067666 
0.008043 
0.007076 
0.060260 
0.446990 
0.506047 
0.504255 
0.462998 
0.120421 
0.012228 
0.000000 
0.006722 
0.060615 
0.076703 
0.455931 
0.183247 
0.462669 
0.119706 
0.011855 
0.000000 
0.063805 
0.450134 
0.120100 
0.025692 
0.124676 
0.454998 
0.065574 
0.018315 
0.131546 
0.507473 
0.459133 
0.115657 
0.012031 
0.008738 
0.068042 
0.068865 
0.018135 
0.068748 
0.072142 
0.064674 
0.017160 
0.065265 
0.076221 
0.073863 
0.072962 
0.021521 
0.113198 
0.409152 
0.140475 
0.180133 
0.408085 
0.117750 
0.404673 
0.121119 
0.025454 
0.065679 
0.072776 
0.076122 
0.064727 
0.007788 
0.112456 
0.398896 
0.112197 
0.015887 
0.008208 
0.055685 
0.011773 
0.064776 
0.447461 
0.078045 
0.081023 
0.124752 
0.080760 
0.448133 
0.076680 
0.119855 
0.399410 
0.112491 
0.395491 
0.065498 
0.072563 
0.073349 
0.077419 
0.507960 
0.519173 
0.133747 
0.397932 
0.066444 
0.030200 
0.180312 
0.471576 
0.180856 
0.408458 
0.121045 
0.079601 
0.065408 
0.016622 
0.064300 
0.068144 
0.068048 
0.387705 
0.055147 
0.000000 
0.007252 
0.064791 
0.077084 
0.084730 
0.175533 
0.403922 
0.060712 
0.007016 
0.055443 
0.388179 
0.072588 
0.124485 
0.462936 
0.554060 
0.454129 
0.059911 
0.000000 
0.011858 
0.115813 
0.404067 
0.122300 
0.467396 
0.183645 
0.022268 
0.014562 
0.128129 
0.464095 
0.179587 
0.400236 
0.061350 
0.072674 
0.510112 
0.507062 
0.076946 
0.069131 
0.443030 
0.442834 
0.064905 
0.017243 
0.065725 
0.076241 
0.443811 
0.064974 
0.021266 
0.124380 
0.507132 
0.463363 
0.125503 
0.081033 
0.077682 
0.068996 
0.009704 
0.013352 
0.072890 
0.498391 
0.450539 
0.064160 
0.020498 
0.057811 
0.016383 
0.003679 
0.060166 
0.387121 
0.055878 
0.011926 
0.061186 
0.025964 
0.117015 
0.403795 
0.120478 
0.451015 
0.127838 
0.454705 
0.120969 
0.033067 
0.112488 
0.016743 
0.013385 
0.060724 
0.018087 
0.077470 
0.133012 
0.089407 
0.129010 
0.084502 
0.125624 
0.468115 
0.568249 
0.522997 
0.125805 
0.029207 
0.116594 
0.399318 
0.111670 
0.391330 
0.060320 
0.012055 
0.055376 
0.006406 
0.000000 
0.000000 
0.017018 
0.065234 
0.069362 
0.400342 
0.119706 
0.067371 
0.007756 
0.008424 
0.068195 
0.065179 
0.021112 
0.066346 
0.080300 
0.065150 
0.007255 
0.000000 
0.000000 
0.020606 
0.122241 
0.097443 
0.564143 
0.522910 
0.074458 
0.069193 
0.452271 
0.137549 
0.086495 
0.071017 
0.019073 
0.077835 
0.566459 
0.522178 
0.124925 
0.021407 
0.064883 
0.072404 
0.072834 
0.065633 
0.396798 
0.120563 
0.451096 
0.065062 
0.014657 
0.073603 
0.451711 
0.124647 
0.080958 
0.455979 
0.178683 
0.400483 
0.064563 
0.064970 
0.077257 
0.451953 
0.123800 
0.013060 
0.072905 
0.021559 
0.072238 
0.015149 
0.081616 
0.063087 
0.006888 
0.000000 
0.015522 
0.129713 
0.400983 
0.111983 
0.020409 
0.064659 
0.071748 
0.442214 
0.078807 
0.131748 
0.399733 
0.060726 
0.062376 
0.386242 
0.063188 
0.071414 
0.449756 
0.500987 
0.507547 
0.500878 
0.453790 
0.136145 
0.212957 
0.528540 
0.079849 
0.061668 
0.393795 
0.114118 
0.020079 
0.059208 
0.010417 
0.000000 
0.000000 
0.000000 
0.000000 
0.013637 
0.126231 
0.393292 
0.064042 
0.064231 
0.067459 
0.386137 
0.055977 
0.018304 
0.130191 
0.393191 
0.056788 
0.015681 
0.076205 
0.014323 
0.000000 
0.000000 
0.000000 
0.063916 
0.471876 
0.202916 
0.530209 
0.578901 
0.080527 
0.071929 
0.453553 
0.201232 
0.476847 
0.145988 
0.090849 
0.080535 
0.528044 
0.186338 
0.401666 
0.059987 
0.012883 
0.070332 
0.457445 
0.078412 
0.131703 
0.034689 
0.134450 
0.023987 
0.079684 
0.087123 
0.071262 
0.020503 
0.068831 
0.496384 
0.456550 
0.119375 
0.068192 
0.396782 
0.135434 
0.081871 
0.083807 
0.007478 
0.616647 
0.136685 
0.613367 
0.094557 
0.653820 
0.051317 
0.000000 
0.000000 
0.050879 
0.655864 
0.085475 
0.009531 
0.000000 
0.000000 
0.003101 
0.040266 
0.050072 
0.613955 
0.127318 
0.012459 
0.051592 
0.045006 
0.053293 
0.054993 
0.044227 
0.046091 
0.044591 
0.044334 
0.044066 
0.054395 
0.659202 
0.690907 
0.051797 
0.007301 
0.041726 
0.051945 
0.007112 
0.051327 
0.049087 
0.004395 
0.004247 
0.045688 
0.009824 
0.091380 
0.615385 
0.081866 
0.005076 
0.003403 
0.005312 
0.036397 
0.008548 
0.091282 
0.613938 
0.083516 
0.006850 
0.045874 
0.609938 
0.090927 
0.004109 
0.000000 
0.000000 
0.050996 
0.688587 
0.665453 
0.184592 
0.699891 
0.057160 
0.053529 
0.091254 
0.662138 
0.735654 
0.706593 
0.701192 
0.100490 
0.649384 
0.059881 
0.087345 
0.054632 
0.008820 
0.095160 
0.649561 
0.097292 
0.616290 
0.142125 
0.661342 
0.096671 
0.655599 
0.655908 
0.098594 
0.051170 
0.007447 
0.042552 
0.040717 
0.008294 
0.011093 
0.129186 
0.620988 
0.139436 
0.611981 
0.047307 
0.136585 
0.615548 
0.092946 
0.055718 
0.652662 
0.048855 
0.000000 
0.004266 
0.095859 
0.656151 
0.053989 
0.048981 
0.001500 
0.000000 
0.000000 
0.000000 
0.004150 
0.090937 
0.613640 
0.094669 
0.657712 
0.144450 
0.659651 
0.698094 
0.055744 
0.050617 
0.004365 
0.004147 
0.046996 
0.006606 
0.050917 
0.052227 
0.006711 
0.050645 
0.095587 
0.610847 
0.094233 
0.652616 
0.654236 
0.097469 
0.096059 
0.615736 
0.138196 
0.617269 
0.136330 
0.009594 
0.002224 
0.048809 
0.050534 
0.006099 
0.045767 
0.610482 
0.094377 
0.052024 
0.004518 
0.004180 
0.090800 
0.610469 
0.048932 
0.047069 
0.004067 
0.002139 
0.051896 
0.096235 
0.659272 
0.699448 
0.096037 
0.610799 
0.095914 
0.056035 
0.055865 
0.099489 
0.654537 
0.055867 
0.096000 
0.056078 
0.656056 
0.699600 
0.097839 
0.614310 
0.141169 
0.059260 
0.099699 
0.702919 
0.699850 
0.057590 
0.097778 
0.099434 
0.656140 
0.652598 
0.047181 
0.001194 
0.004115 
0.050705 
0.097895 
0.664192 
0.187008 
0.619169 
0.091221 
0.006362 
0.017026 
0.093117 
0.012082 
0.054491 
0.097572 
0.006491 
0.000000 
0.048940 
0.657674 
0.144639 
0.057646 
0.650896 
0.048734 
0.004149 
0.045204 
0.000957 
0.000000 
0.008009 
0.092807 
0.059065 
0.699882 
0.704886 
0.149826 
0.703279 
0.102825 
0.652759 
0.050475 
0.047156 
0.605460 
0.048958 
0.052312 
0.052428 
0.050668 
0.650892 
0.654155 
0.096076 
0.055754 
0.054346 
0.097745 
0.656232 
0.659459 
0.186624 
0.664254 
0.139877 
0.612214 
0.047320 
0.048805 
0.654015 
0.695925 
0.050651 
0.008185 
0.092523 
0.054092 
0.610883 
0.092421 
0.004671 
0.009936 
0.092607 
0.052261 
0.608888 
0.090613 
0.004153 
0.002232 
0.006576 
0.050874 
0.050757 
0.008226 
0.090869 
0.612200 
0.092748 
0.010252 
0.050886 
0.052281 
0.049358 
0.612437 
0.096428 
0.104484 
0.703184 
0.102750 
0.097989 
0.657645 
0.652939 
0.097771 
0.657856 
0.099490 
0.052839 
0.609518 
0.056101 
0.099565 
0.099224 
0.006537 
0.000000 
0.048726 
0.652626 
0.701160 
0.746754 
0.709554 
0.141689 
0.013646 
0.049158 
0.143224 
0.659433 
0.099752 
0.703028 
0.701230 
0.050680 
0.002109 
0.052288 
0.699654 
0.702894 
0.099428 
0.652541 
0.050403 
0.047029 
0.605271 
0.045141 
0.000984 
0.045572 
0.610563 
0.096164 
0.101182 
0.661454 
0.146772 
0.663122 
0.144816 
0.655991 
0.049095 
0.006269 
0.047215 
0.050438 
0.650891 
0.652510 
0.050843 
0.052241 
0.051008 
0.055678 
0.651354 
0.055929 
0.056085 
0.099400 
0.099561 
0.659509 
0.698264 
0.057370 
0.047448 
0.001854 
0.006280 
0.094176 
0.654065 
0.050552 
0.047194 
0.607282 
0.054126 
0.141119 
0.657584 
0.054083 
0.092696 
0.610556 
0.050637 
0.092475 
0.610506 
0.049062 
0.050552 
0.052440 
0.052529 
0.006636 
0.000000 
0.006095 
0.090754 
0.610512 
0.092528 
0.607246 
0.047350 
0.010044 
0.138003 
0.617738 
0.144900 
0.702992 
0.654714 
0.055844 
0.096001 
0.052552 
0.012109 
0.096323 
0.057797 
0.057925 
0.101403 
0.101489 
0.659773 
0.699714 
0.052479 
0.004543 
0.048990 
0.054005 
0.054338 
0.100965 
0.699957 
0.659389 
0.096317 
0.654331 
0.704767 
0.701614 
0.104701 
0.748281 
0.703065 
0.052618 
0.006666 
0.052653 
0.101005 
0.654540 
0.052536 
0.050503 
0.001885 
0.001185 
0.045138 
0.000953 
0.000000 
0.006219 
0.092557 
0.609202 
0.055963 
0.143122 
0.662950 
0.144945 
0.659592 
0.097744 
0.008371 
0.045711 
0.006356 
0.004785 
0.052355 
0.096015 
0.011981 
0.047817 
0.011863 
0.094649 
0.659130 
0.141288 
0.656036 
0.652771 
0.052632 
0.056001 
0.099356 
0.052652 
0.006577 
0.004347 
0.045742 
0.010039 
0.049212 
0.004397 
0.001535 
0.047022 
0.050615 
0.655854 
0.697927 
0.097733 
0.612334 
0.090815 
0.004383 
0.008121 
0.092517 
0.053924 
0.652719 
0.699573 
0.702890 
0.099381 
0.050501 
0.002072 
0.004214 
0.048977 
0.052134 
0.048850 
0.004302 
0.049257 
0.659332 
0.144899 
0.659685 
0.099568 
0.054235 
0.050921 
0.607555 
0.052368 
0.094493 
0.659335 
0.701612 
0.748460 
0.753541 
0.708620 
0.150092 
0.704980 
0.101182 
0.052643 
0.609073 
0.092475 
0.006450 
0.004935 
0.055797 
0.098031 
0.059319 
0.101252 
0.104609 
0.101396 
0.059699 
0.703242 
0.103042 
0.056096 
0.097743 
0.657766 
0.099473 
0.052627 
0.008463 
0.047429 
0.004130 
0.000000 
0.000000 
0.000000 
0.001611 
0.049003 
0.055571 
0.050867 
0.050822 
0.655903 
0.698016 
0.101063 
0.656151 
0.097572 
0.050924 
0.610779 
0.096119 
0.054184 
0.054434 
0.657817 
0.141403 
0.615913 
0.138088 
0.615700 
0.137992 
0.614119 
0.096079 
0.052459 
0.008546 
0.094320 
0.655982 
0.654402 
0.097484 
0.095934 
0.612388 
0.094646 
0.057281 
0.049079 
0.001643 
0.001326 
0.001642 
0.049052 
0.055788 
0.055953 
0.094306 
0.008087 
0.000000 
0.045427 
0.607205 
0.050908 
0.054269 
0.102784 
0.746594 
0.704534 
0.652801 
0.048895 
0.004559 
0.048912 
0.605629 
0.046961 
0.002164 
0.054029 
0.701435 
0.148042 
0.658031 
0.054444 
0.052578 
0.052492 
0.052490 
0.050999 
0.612475 
0.141335 
0.104575 
0.708489 
0.798853 
0.755466 
0.152041 
0.708423 
0.703444 
0.102750 
0.096076 
0.608857 
0.045559 
0.006448 
0.096040 
0.657736 
0.698105 
0.701198 
0.697978 
0.656119 
0.099526 
0.701408 
0.102959 
0.656367 
0.701196 
0.742976 
0.656068 
0.054186 
0.094483 
0.614073 
0.092569 
0.004231 
0.001494 
0.046967 
0.050526 
0.654109 
0.696133 
0.052215 
0.004481 
0.048860 
0.050714 
0.010205 
0.092594 
0.609154 
0.054187 
0.143068 
0.707883 
0.701560 
0.101309 
0.703116 
0.704886 
0.146467 
0.659372 
0.094477 
0.010015 
0.049265 
0.054012 
0.052520 
0.050799 
0.609107 
0.095815 
0.097482 
0.654443 
0.657688 
0.141541 
0.662659 
0.741713 
0.657512 
0.050653 
0.046982 
0.001644 
0.006328 
0.094337 
0.655941 
0.652539 
0.047064 
0.000000 
0.004169 
0.049150 
0.054018 
0.052657 
0.054476 
0.659462 
0.143115 
0.057627 
0.054431 
0.054302 
0.054174 
0.048944 
0.002137 
0.006404 
0.097732 
0.701402 
0.661237 
0.141304 
0.055925 
0.652777 
0.654496 
0.099348 
0.055835 
0.094388 
0.610825 
0.052832 
0.103010 
0.751884 
0.752152 
0.666865 
0.192079 
0.708253 
0.701560 
0.055789 
0.047262 
0.004298 
0.050728 
0.656113 
0.099603 
0.055929 
0.052619 
0.052220 
0.050693 
0.052471 
0.656112 
0.101215 
0.099483 
0.055952 
0.054062 
0.050819 
0.052607 
0.659329 
0.188273 
0.660984 
0.050803 
0.047052 
0.605582 
0.052264 
0.096001 
0.655726 
0.048945 
0.000000 
0.000000 
0.006221 
0.045805 
0.008198 
0.049147 
0.052697 
0.661147 
0.789956 
0.704701 
0.059486 
0.143294 
0.664639 
0.144897 
0.656067 
0.050536 
0.002107 
0.048652 
0.650885 
0.654191 
0.095780 
0.050564 
0.004629 
0.006578 
0.052488 
0.097902 
0.062584 
0.143444 
0.664379 
0.141366 
0.053962 
0.605582 
0.046960 
0.047239 
0.612238 
0.139413 
0.053839 
0.001714 
0.001199 
0.047329 
0.057231 
0.696345 
0.654245 
0.052396 
0.094440 
0.614253 
0.098163 
0.704687 
0.748397 
0.703031 
0.052707 
0.008396 
0.094436 
0.659366 
0.101168 
0.096137 
0.610946 
0.054309 
0.097781 
0.102612 
0.699614 
0.654405 
0.052375 
0.049136 
0.006612 
0.051065 
0.659684 
0.149960 
0.148603 
0.666595 
0.148418 
0.701285 
0.052401 
0.001826 
0.004355 
0.097545 
0.702973 
0.102871 
0.052792 
0.006787 
0.000000 
0.000000 
0.004321 
0.094176 
0.656111 
0.654409 
0.049030 
0.002013 
0.004397 
0.050659 
0.698058 
0.707983 
0.744959 
0.054083 
0.004440 
0.048735 
0.049095 
0.011794 
0.092567 
0.006214 
0.000000 
0.003993 
0.090753 
0.610520 
0.049302 
0.052321 
0.054139 
0.097901 
0.659400 
0.097743 
0.051079 
0.615913 
0.185017 
0.617556 
0.092591 
0.004212 
0.000000 
0.001589 
0.050437 
0.095775 
0.609066 
0.047406 
0.006261 
0.047348 
0.052313 
0.654284 
0.696395 
0.659337 
0.141413 
0.612469 
0.049034 
0.047121 
0.004172 
0.004136 
0.090700 
0.610589 
0.048953 
0.001335 
0.045342 
0.610468 
0.139706 
0.660905 
0.096023 
0.004682 
0.008317 
0.094523 
0.060982 
0.747041 
0.756658 
0.748605 
0.059455 
0.096349 
0.660952 
0.741514 
0.055835 
0.006662 
0.050749 
0.095958 
0.612594 
0.096134 
0.655943 
0.095929 
0.008666 
0.052285 
0.049098 
0.008332 
0.094504 
0.659635 
0.704852 
0.745106 
0.104481 
0.654398 
0.048806 
0.001423 
0.047050 
0.655850 
0.744833 
0.703151 
0.657901 
0.097705 
0.000000 
0.000000 
0.000000 
0.008399 
0.099393 
0.099304 
0.006610 
0.001953 
0.047065 
0.006683 
0.054323 
0.103118 
0.703025 
0.052495 
0.001850 
0.047041 
0.607067 
0.090836 
0.608682 
0.045352 
0.000990 
0.045446 
0.612196 
0.139581 
0.057366 
0.651107 
0.650906 
0.052366 
0.050870 
0.006579 
0.004526 
0.094368 
0.659122 
0.094421 
0.006354 
0.000000 
0.000000 
0.000000 
0.004374 
0.050691 
0.050883 
0.010083 
0.090915 
0.608786 
0.049183 
0.052356 
0.052403 
0.052562 
0.054056 
0.049125 
0.004585 
0.006297 
0.045472 
0.001512 
0.004187 
0.048848 
0.048705 
0.001483 
0.004005 
0.090836 
0.615685 
0.141359 
0.055652 
0.004612 
0.048999 
0.654127 
0.098157 
0.664695 
0.193711 
0.708255 
0.101598 
0.659473 
0.143109 
0.657642 
0.050758 
0.002183 
0.050546 
0.654229 
0.095920 
0.008495 
0.050752 
0.052433 
0.054060 
0.696096 
0.654028 
0.047456 
0.010036 
0.096095 
0.101041 
0.656068 
0.052486 
0.048797 
0.001495 
0.000000 
0.001396 
0.049134 
0.059264 
0.102994 
0.144692 
0.657896 
0.045435 
0.003996 
0.000000 
0.050705 
0.701144 
0.701188 
0.052606 
0.052242 
0.650891 
0.052449 
0.054399 
0.102997 
0.703025 
0.052628 
0.002098 
0.004186 
0.045604 
0.007962 
0.045465 
0.000991 
0.000000 
0.004106 
0.094311 
0.659205 
0.097983 
0.055840 
0.050836 
0.006684 
0.050579 
0.048911 
0.004559 
0.052221 
0.651059 
0.050684 
0.006485 
0.047051 
0.001382 
0.000000 
0.047252 
0.610933 
0.099313 
0.096258 
0.613919 
0.091199 
0.010090 
0.049148 
0.006507 
0.047371 
0.607418 
0.050740 
0.052223 
0.094287 
0.610512 
0.045617 
0.004131 
0.047110 
0.605363 
0.045144 
0.000000 
0.006120 
0.092534 
0.655729 
0.650965 
0.048747 
0.050408 
0.651010 
0.057413 
0.141552 
0.662998 
0.701698 
0.102843 
0.698104 
0.057532 
0.052562 
0.048948 
0.004245 
0.048990 
0.654105 
0.095775 
0.006455 
0.047207 
0.607238 
0.094168 
0.655848 
0.095814 
0.006281 
0.045548 
0.607242 
0.050684 
0.048813 
0.001714 
0.000000 
0.000000 
0.000000 
0.000000 
0.006269 
0.094387 
0.656200 
0.657810 
0.097752 
0.612028 
0.090890 
0.008272 
0.052530 
0.699487 
0.699569 
0.055790 
0.095990 
0.655900 
0.097691 
0.654547 
0.702945 
0.744968 
0.059354 
0.052539 
0.049082 
0.008100 
0.045641 
0.004000 
0.000000 
0.000000 
0.000000 
0.053793 
0.696388 
0.657781 
0.099511 
0.054180 
0.050710 
0.650895 
0.652456 
0.050650 
0.050784 
0.052458 
0.010331 
0.094271 
0.653979 
0.048861 
0.004476 
0.053990 
0.144511 
0.703134 
0.661041 
0.138264 
0.017101 
0.096285 
0.654165 
0.049144 
0.008323 
0.094137 
0.054011 
0.651226 
0.659201 
0.139641 
0.011712 
0.045647 
0.006122 
0.045331 
0.000966 
0.000000 
0.000000 
0.004159 
0.048918 
0.050360 
0.001622 
0.001717 
0.050370 
0.049209 
0.610783 
0.097861 
0.099367 
0.056124 
0.654287 
0.050830 
0.049009 
0.607155 
0.045661 
0.008142 
0.092485 
0.608805 
0.045425 
0.004049 
0.045378 
0.006426 
0.052343 
0.050617 
0.001753 
0.001439 
0.047090 
0.004491 
0.001723 
0.000000 
0.000000 
0.000000 
0.000000 
0.000000 
0.045519 
0.610640 
0.097687 
0.095929 
0.008500 
0.136259 
0.614010 
0.096009 
0.054142 
0.054312 
0.054106 
0.049221 
0.609045 
0.096042 
0.055750 
0.054323 
0.097933 
0.661188 
0.144856 
0.702830 
0.656004 
0.092630 
0.608709 
0.045534 
0.004009 
0.045278 
0.006238 
0.049200 
0.057429 
0.099691 
0.701128 
0.654428 
0.050846 
0.054061 
0.097477 
0.052536 
0.609259 
0.097525 
0.097621 
0.657563 
0.696099 
0.052102 
0.048828 
0.652591 
0.701194 
0.702862 
0.141435 
0.617629 
0.143187 
0.704466 
0.699677 
0.054112 
0.050886 
0.652382 
0.052566 
0.055803 
0.142932 
0.660828 
0.094439 
0.607082 
0.045500 
0.004006 
0.000000 
0.000000 
0.000000 
0.000000 
0.004168 
0.046938 
0.001329 
0.001445 
0.047042 
0.006283 
0.047393 
0.052290 
0.607771 
0.054119 
0.094123 
0.006507 
0.006504 
0.092407 
0.010051 
0.047425 
0.008193 
0.045419 
0.001043 
0.000000 
0.000000 
0.004227 
0.092319 
0.608868 
0.045439 
0.004241 
0.050586 
0.053835 
0.048962 
0.006242 
0.045406 
0.004025 
0.000000 
0.000000 
0.006183 
0.092504 
0.055676 
0.607509 
0.047189 
0.012043 
0.096938 
0.698020 
0.651168 
0.052849 
0.049391 
0.006499 
0.047811 
0.054307 
0.647711 
0.053005 
0.010683 
0.097250 
0.659668 
0.742241 
0.100267 
0.012108 
0.091549 
0.008165 
0.045841 
0.603423 
0.093059 
0.607055 
0.095177 
0.059706 
0.696654 
0.098401 
0.008677 
0.051389 
0.650953 
0.054707 
0.096806 
0.652708 
0.651033 
0.096650 
0.052543 
0.001959 
0.001601 
0.049181 
0.052745 
0.051253 
0.010340 
0.096939 
0.699884 
0.700183 
0.101926 
0.053107 
0.054447 
0.647620 
0.050916 
0.051118 
0.652520 
0.693225 
0.054188 
0.047626 
0.006245 
0.045654 
0.001070 
0.000000 
0.000000 
0.001054 
0.045618 
0.601682 
0.047368 
0.049132 
0.603506 
0.045904 
0.006352 
0.049422 
0.054418 
0.094953 
0.606954 
0.047727 
0.051086 
0.652573 
0.098524 
0.650915 
0.051052 
0.001834 
0.001500 
0.047219 
0.004317 
0.045881 
0.606905 
0.093198 
0.006377 
0.047550 
0.652401 
0.738475 
0.654108 
0.093386 
0.608528 
0.091445 
0.006328 
0.002095 
0.047639 
0.606995 
0.094870 
0.051042 
0.004610 
0.002824 
0.054573 
0.698203 
0.100027 
0.051080 
0.601965 
0.047588 
0.006507 
0.049498 
0.650929 
0.100119 
0.054999 
0.059829 
0.144186 
0.656337 
0.054865 
0.049784 
0.605403 
0.047813 
0.006507 
0.049391 
0.054273 
0.094877 
0.607109 
0.094976 
0.650922 
0.054543 
0.049721 
0.057829 
0.693249 
0.056403 
0.056399 
0.098344 
0.052898 
0.006593 
0.000000 
0.000000 
0.000000 
0.000000 
0.000000 
0.000000 
0.000000 
0.050995 
0.652684 
0.098590 
0.054725 
0.605611 
0.094841 
0.052516 
0.001909 
0.001727 
0.049255 
0.052471 
0.002073 
0.001309 
0.045772 
0.603301 
0.045741 
0.001247 
0.001338 
0.045556 
0.006345 
0.047538 
0.006631 
0.052629 
0.094707 
0.008259 
0.045902 
0.603437 
0.093059 
0.606888 
0.091497 
0.008458 
0.053001 
0.696631 
0.105340 
0.698251 
0.098213 
0.006652 
0.049190 
0.647315 
0.050987 
0.008534 
0.094892 
0.054351 
0.004658 
0.004436 
0.094873 
0.655841 
0.095356 
0.015460 
0.137321 
0.612075 
0.095047 
0.054379 
0.054487 