# vtk DataFile Version 3.0
results.vtk
ASCII
DATASET RECTILINEAR_GRID
DIMENSIONS 100 100 1
X_COORDINATES 100 double
0.000000 0.010000 0.020000 0.030000 0.040000 0.050000 0.060000 0.070000 0.080000 0.090000 0.100000 0.110000 0.120000 0.130000 0.140000 0.150000 0.160000 0.170000 0.180000 0.190000 0.200000 0.210000 0.220000 0.230000 0.240000 0.250000 0.260000 0.270000 0.280000 0.290000 0.300000 0.310000 0.320000 0.330000 0.340000 0.350000 0.360000 0.370000 0.380000 0.390000 0.400000 0.410000 0.420000 0.430000 0.440000 0.450000 0.460000 0.470000 0.480000 0.490000 0.500000 0.510000 0.520000 0.530000 0.540000 0.550000 0.560000 0.570000 0.580000 0.590000 0.600000 0.610000 0.620000 0.630000 0.640000 0.650000 0.660000 0.670000 0.680000 0.690000 0.700000 0.710000 0.720000 0.730000 0.740000 0.750000 0.760000 0.770000 0.780000 0.790000 0.800000 0.810000 0.820000 0.830000 0.840000 0.850000 0.860000 0.870000 0.880000 0.890000 0.900000 0.910000 0.920000 0.930000 0.940000 0.950000 0.960000 0.970000 0.980000 0.990000 
Y_COORDINATES 100 double
0.000000 0.010000 0.020000 0.030000 0.040000 0.050000 0.060000 0.070000 0.080000 0.090000 0.100000 0.110000 0.120000 0.130000 0.140000 0.150000 0.160000 0.170000 0.180000 0.190000 0.200000 0.210000 0.220000 0.230000 0.240000 0.250000 0.260000 0.270000 0.280000 0.290000 0.300000 0.310000 0.320000 0.330000 0.340000 0.350000 0.360000 0.370000 0.380000 0.390000 0.400000 0.410000 0.420000 0.430000 0.440000 0.450000 0.460000 0.470000 0.480000 0.490000 0.500000 0.510000 0.520000 0.530000 0.540000 0.550000 0.560000 0.570000 0.580000 0.590000 0.600000 0.610000 0.620000 0.630000 0.640000 0.650000 0.660000 0.670000 0.680000 0.690000 0.700000 0.710000 0.720000 0.730000 0.740000 0.750000 0.760000 0.770000 0.780000 0.790000 0.800000 0.810000 0.820000 0.830000 0.840000 0.850000 0.860000 0.870000 0.880000 0.890000 0.900000 0.910000 0.920000 0.930000 0.940000 0.950000 0.960000 0.970000 0.980000 0.990000 
Z_COORDINATES 1 double
0
POINT_DATA 10000 
FIELD FieldData 1 
Concentração 1 10000 double 
0.003224 
0.003138 
0.002895 
0.002605 
0.002365 
0.002187 
0.002101 
0.002046 
0.001993 
0.002036 
0.002193 
0.002267 
0.002137 
0.002028 
0.002171 
0.002457 
0.002611 
0.002525 
0.002355 
0.002305 
0.002421 
0.002575 
0.002632 
0.002600 
0.002485 
0.002266 
0.002002 
0.001820 
0.001743 
0.001716 
0.001782 
0.001949 
0.002047 
0.001949 
0.001759 
0.001659 
0.001608 
0.001470 
0.001317 
0.001325 
0.001517 
0.001752 
0.001823 
0.001543 
0.000889 
0.000000 
0.000620 
0.001222 
0.001828 
0.002359 
0.002590 
0.002321 
0.001655 
0.000835 
0.000000 
0.000000 
0.000000 
0.001673 
0.002743 
0.003169 
0.003036 
0.002681 
0.002351 
0.002149 
0.002025 
0.001946 
0.001945 
0.001954 
0.001854 
0.001659 
0.001410 
0.001195 
0.001067 
0.001048 
0.001093 
0.001090 
0.000895 
0.000496 
0.000000 
0.000000 
0.000740 
0.001312 
0.001841 
0.002258 
0.002449 
0.002370 
0.002118 
0.001913 
0.001845 
0.001891 
0.001934 
0.001823 
0.001535 
0.001276 
0.001216 
0.001330 
0.001409 
0.001236 
0.000803 
0.000000 
0.003088 
0.003007 
0.002777 
0.002496 
0.002244 
0.002052 
0.001970 
0.001952 
0.001965 
0.002070 
0.002246 
0.002288 
0.002106 
0.001961 
0.002096 
0.002402 
0.002585 
0.002507 
0.002314 
0.002231 
0.002326 
0.002483 
0.002572 
0.002580 
0.002490 
0.002298 
0.002061 
0.001881 
0.001777 
0.001710 
0.001734 
0.001875 
0.001978 
0.001910 
0.001755 
0.001670 
0.001610 
0.001462 
0.001313 
0.001318 
0.001492 
0.001710 
0.001781 
0.001527 
0.000916 
0.000000 
0.000638 
0.001171 
0.001710 
0.002218 
0.002474 
0.002256 
0.001636 
0.000841 
0.000000 
0.000000 
0.000707 
0.001847 
0.002766 
0.003120 
0.002945 
0.002570 
0.002245 
0.002072 
0.002001 
0.001981 
0.002006 
0.002003 
0.001885 
0.001689 
0.001459 
0.001264 
0.001144 
0.001124 
0.001161 
0.001142 
0.000924 
0.000508 
0.000000 
0.000321 
0.000821 
0.001323 
0.001820 
0.002210 
0.002373 
0.002290 
0.002081 
0.001936 
0.001897 
0.001914 
0.001903 
0.001775 
0.001526 
0.001314 
0.001260 
0.001343 
0.001398 
0.001251 
0.000939 
0.000594 
0.002729 
0.002666 
0.002488 
0.002248 
0.001983 
0.001761 
0.001692 
0.001774 
0.001955 
0.002195 
0.002387 
0.002335 
0.002034 
0.001813 
0.001925 
0.002260 
0.002497 
0.002449 
0.002226 
0.002083 
0.002134 
0.002295 
0.002449 
0.002532 
0.002486 
0.002347 
0.002169 
0.001990 
0.001811 
0.001639 
0.001568 
0.001669 
0.001804 
0.001823 
0.001757 
0.001712 
0.001640 
0.001481 
0.001343 
0.001331 
0.001440 
0.001595 
0.001661 
0.001496 
0.001095 
0.000694 
0.000793 
0.001053 
0.001399 
0.001861 
0.002177 
0.002094 
0.001610 
0.000894 
0.000000 
0.000000 
0.000909 
0.001913 
0.002683 
0.002919 
0.002685 
0.002293 
0.001991 
0.001884 
0.001933 
0.002047 
0.002125 
0.002085 
0.001918 
0.001718 
0.001529 
0.001377 
0.001271 
0.001244 
0.001274 
0.001241 
0.000998 
0.000556 
0.000000 
0.000431 
0.000855 
0.001279 
0.001719 
0.002065 
0.002189 
0.002130 
0.002045 
0.002049 
0.002071 
0.002013 
0.001877 
0.001718 
0.001560 
0.001451 
0.001404 
0.001409 
0.001392 
0.001252 
0.001033 
0.000844 
0.002288 
0.002261 
0.002180 
0.002036 
0.001802 
0.001574 
0.001538 
0.001751 
0.002113 
0.002454 
0.002588 
0.002386 
0.001953 
0.001655 
0.001717 
0.002022 
0.002281 
0.002295 
0.002116 
0.001969 
0.001993 
0.002158 
0.002357 
0.002476 
0.002431 
0.002312 
0.002176 
0.001987 
0.001729 
0.001452 
0.001301 
0.001431 
0.001655 
0.001788 
0.001808 
0.001793 
0.001715 
0.001570 
0.001456 
0.001409 
0.001413 
0.001473 
0.001534 
0.001472 
0.001236 
0.000981 
0.000885 
0.000870 
0.000903 
0.001394 
0.001795 
0.001880 
0.001609 
0.001091 
0.000458 
0.000000 
0.000855 
0.001728 
0.002354 
0.002518 
0.002306 
0.001974 
0.001741 
0.001706 
0.001862 
0.002093 
0.002214 
0.002130 
0.001906 
0.001692 
0.001534 
0.001410 
0.001298 
0.001251 
0.001284 
0.001285 
0.001088 
0.000672 
0.000000 
0.000507 
0.000843 
0.001176 
0.001566 
0.001903 
0.002048 
0.002066 
0.002125 
0.002266 
0.002321 
0.002173 
0.001931 
0.001767 
0.001710 
0.001685 
0.001624 
0.001542 
0.001445 
0.001282 
0.001098 
0.000967 
0.001923 
0.001933 
0.001953 
0.001932 
0.001788 
0.001613 
0.001643 
0.001977 
0.002457 
0.002808 
0.002814 
0.002445 
0.001908 
0.001559 
0.001557 
0.001778 
0.002009 
0.002103 
0.002050 
0.001974 
0.002004 
0.002161 
0.002357 
0.002450 
0.002348 
0.002172 
0.001998 
0.001778 
0.001480 
0.001138 
0.000884 
0.001187 
0.001540 
0.001761 
0.001827 
0.001828 
0.001775 
0.001696 
0.001644 
0.001576 
0.001482 
0.001450 
0.001509 
0.001542 
0.001438 
0.001260 
0.001060 
0.000752 
0.000000 
0.000969 
0.001462 
0.001676 
0.001612 
0.001268 
0.000686 
0.000000 
0.000565 
0.001252 
0.001745 
0.001926 
0.001846 
0.001663 
0.001539 
0.001563 
0.001763 
0.002048 
0.002210 
0.002130 
0.001884 
0.001653 
0.001499 
0.001378 
0.001246 
0.001172 
0.001217 
0.001292 
0.001228 
0.001004 
0.000738 
0.000784 
0.000913 
0.001136 
0.001481 
0.001841 
0.002058 
0.002172 
0.002321 
0.002502 
0.002524 
0.002304 
0.002030 
0.001916 
0.001940 
0.001942 
0.001838 
0.001693 
0.001554 
0.001386 
0.001236 
0.001146 
0.001801 
0.001825 
0.001888 
0.001937 
0.001887 
0.001801 
0.001911 
0.002314 
0.002811 
0.003088 
0.002958 
0.002477 
0.001899 
0.001536 
0.001482 
0.001616 
0.001807 
0.001974 
0.002059 
0.002088 
0.002153 
0.002298 
0.002465 
0.002520 
0.002359 
0.002079 
0.001788 
0.001500 
0.001188 
0.000782 
0.000000 
0.000903 
0.001370 
0.001615 
0.001701 
0.001737 
0.001761 
0.001800 
0.001852 
0.001806 
0.001658 
0.001560 
0.001610 
0.001705 
0.001709 
0.001625 
0.001449 
0.001174 
0.000874 
0.001049 
0.001287 
0.001496 
0.001584 
0.001403 
0.000870 
0.000000 
0.000000 
0.000588 
0.000945 
0.001233 
0.001358 
0.001365 
0.001359 
0.001426 
0.001620 
0.001906 
0.002116 
0.002110 
0.001910 
0.001675 
0.001497 
0.001344 
0.001184 
0.001089 
0.001155 
0.001308 
0.001373 
0.001289 
0.001132 
0.001049 
0.001070 
0.001220 
0.001523 
0.001888 
0.002163 
0.002347 
0.002531 
0.002681 
0.002628 
0.002352 
0.002095 
0.002061 
0.002162 
0.002176 
0.002023 
0.001822 
0.001661 
0.001521 
0.001435 
0.001401 
0.001913 
0.001932 
0.001974 
0.002001 
0.001974 
0.001955 
0.002129 
0.002554 
0.003000 
0.003173 
0.002953 
0.002445 
0.001885 
0.001525 
0.001419 
0.001479 
0.001633 
0.001847 
0.002047 
0.002203 
0.002354 
0.002519 
0.002677 
0.002743 
0.002586 
0.002228 
0.001802 
0.001435 
0.001161 
0.000946 
0.000775 
0.001036 
0.001269 
0.001403 
0.001457 
0.001511 
0.001605 
0.001756 
0.001913 
0.001924 
0.001775 
0.001645 
0.001676 
0.001803 
0.001903 
0.001939 
0.001848 
0.001608 
0.001298 
0.001118 
0.001089 
0.001240 
0.001470 
0.001499 
0.001170 
0.000582 
0.000000 
0.000000 
0.000000 
0.000547 
0.000930 
0.001133 
0.001233 
0.001329 
0.001497 
0.001745 
0.001969 
0.002057 
0.001964 
0.001762 
0.001544 
0.001322 
0.001105 
0.000971 
0.001078 
0.001292 
0.001444 
0.001449 
0.001337 
0.001234 
0.001239 
0.001373 
0.001632 
0.001946 
0.002206 
0.002412 
0.002620 
0.002755 
0.002663 
0.002363 
0.002122 
0.002138 
0.002303 
0.002348 
0.002179 
0.001933 
0.001731 
0.001595 
0.001546 
0.001544 
0.002025 
0.002039 
0.002044 
0.001996 
0.001916 
0.001905 
0.002107 
0.002534 
0.002937 
0.003053 
0.002824 
0.002372 
0.001880 
0.001530 
0.001355 
0.001329 
0.001435 
0.001662 
0.001946 
0.002230 
0.002497 
0.002708 
0.002890 
0.003025 
0.002944 
0.002570 
0.002060 
0.001643 
0.001407 
0.001302 
0.001245 
0.001279 
0.001308 
0.001308 
0.001280 
0.001279 
0.001363 
0.001549 
0.001757 
0.001810 
0.001679 
0.001539 
0.001555 
0.001718 
0.001928 
0.002098 
0.002109 
0.001903 
0.001510 
0.001069 
0.000732 
0.000813 
0.001260 
0.001535 
0.001454 
0.001080 
0.000579 
0.000000 
0.000000 
0.000000 
0.000675 
0.001056 
0.001239 
0.001353 
0.001502 
0.001691 
0.001866 
0.001999 
0.002021 
0.001886 
0.001629 
0.001306 
0.000971 
0.000697 
0.000950 
0.001240 
0.001444 
0.001503 
0.001423 
0.001337 
0.001369 
0.001528 
0.001760 
0.001990 
0.002169 
0.002335 
0.002551 
0.002710 
0.002653 
0.002393 
0.002173 
0.002192 
0.002369 
0.002436 
0.002279 
0.002019 
0.001776 
0.001592 
0.001489 
0.001449 
0.001972 
0.001983 
0.001957 
0.001837 
0.001690 
0.001653 
0.001851 
0.002276 
0.002687 
0.002822 
0.002657 
0.002309 
0.001915 
0.001597 
0.001375 
0.001276 
0.001320 
0.001507 
0.001796 
0.002133 
0.002462 
0.002712 
0.002938 
0.003159 
0.003167 
0.002830 
0.002326 
0.001933 
0.001767 
0.001747 
0.001715 
0.001641 
0.001542 
0.001437 
0.001316 
0.001214 
0.001215 
0.001358 
0.001540 
0.001581 
0.001441 
0.001273 
0.001258 
0.001479 
0.001818 
0.002109 
0.002203 
0.002023 
0.001564 
0.000899 
0.000000 
0.000000 
0.001018 
0.001545 
0.001703 
0.001545 
0.001166 
0.000615 
0.000000 
0.000000 
0.000661 
0.001150 
0.001415 
0.001570 
0.001719 
0.001833 
0.001893 
0.001994 
0.002106 
0.002069 
0.001818 
0.001412 
0.000900 
0.000000 
0.000904 
0.001298 
0.001483 
0.001534 
0.001476 
0.001414 
0.001461 
0.001628 
0.001833 
0.001989 
0.002076 
0.002174 
0.002372 
0.002571 
0.002602 
0.002437 
0.002251 
0.002225 
0.002327 
0.002349 
0.002204 
0.001995 
0.001794 
0.001601 
0.001430 
0.001317 
0.001860 
0.001857 
0.001792 
0.001625 
0.001444 
0.001375 
0.001523 
0.001902 
0.002329 
0.002529 
0.002466 
0.002239 
0.001957 
0.001712 
0.001515 
0.001409 
0.001412 
0.001522 
0.001720 
0.001974 
0.002258 
0.002509 
0.002776 
0.003058 
0.003132 
0.002865 
0.002443 
0.002143 
0.002090 
0.002192 
0.002231 
0.002120 
0.001922 
0.001718 
0.001515 
0.001326 
0.001235 
0.001285 
0.001370 
0.001335 
0.001158 
0.000928 
0.000810 
0.001130 
0.001621 
0.002009 
0.002161 
0.002027 
0.001595 
0.000928 
0.000000 
0.000525 
0.001142 
0.001613 
0.001872 
0.001888 
0.001641 
0.001123 
0.000482 
0.000000 
0.000663 
0.001281 
0.001704 
0.001972 
0.002149 
0.002169 
0.002069 
0.002086 
0.002252 
0.002333 
0.002160 
0.001794 
0.001422 
0.001197 
0.001489 
0.001674 
0.001694 
0.001644 
0.001576 
0.001531 
0.001562 
0.001687 
0.001856 
0.001975 
0.002015 
0.002050 
0.002211 
0.002437 
0.002551 
0.002474 
0.002316 
0.002230 
0.002212 
0.002140 
0.002000 
0.001892 
0.001826 
0.001720 
0.001534 
0.001365 
0.001913 
0.001888 
0.001785 
0.001606 
0.001425 
0.001282 
0.001278 
0.001509 
0.001979 
0.002280 
0.002301 
0.002139 
0.001925 
0.001779 
0.001687 
0.001660 
0.001690 
0.001754 
0.001820 
0.001899 
0.002052 
0.002258 
0.002532 
0.002832 
0.002949 
0.002783 
0.002497 
0.002325 
0.002401 
0.002652 
0.002815 
0.002692 
0.002353 
0.002011 
0.001750 
0.001537 
0.001391 
0.001338 
0.001263 
0.001062 
0.000833 
0.000516 
0.000000 
0.000623 
0.001388 
0.001837 
0.001999 
0.001928 
0.001624 
0.001186 
0.000840 
0.001031 
0.001402 
0.001713 
0.001921 
0.002015 
0.001876 
0.001378 
0.000644 
0.000000 
0.000534 
0.001391 
0.002109 
0.002595 
0.002842 
0.002764 
0.002476 
0.002374 
0.002559 
0.002754 
0.002704 
0.002441 
0.002182 
0.002125 
0.002285 
0.002296 
0.002115 
0.001916 
0.001810 
0.001804 
0.001851 
0.001946 
0.002097 
0.002218 
0.002239 
0.002203 
0.002295 
0.002489 
0.002596 
0.002520 
0.002357 
0.002239 
0.002149 
0.002031 
0.001943 
0.001984 
0.002080 
0.002064 
0.001860 
0.001626 
0.002603 
0.002551 
0.002409 
0.002217 
0.001993 
0.001594 
0.001215 
0.001074 
0.001916 
0.002467 
0.002459 
0.002127 
0.001739 
0.001628 
0.001706 
0.001876 
0.002103 
0.002306 
0.002334 
0.002257 
0.002305 
0.002464 
0.002704 
0.002938 
0.002995 
0.002865 
0.002674 
0.002612 
0.002821 
0.003253 
0.003612 
0.003484 
0.002924 
0.002411 
0.002136 
0.001966 
0.001813 
0.001683 
0.001371 
0.000713 
0.000468 
0.000257 
0.000000 
0.000000 
0.001542 
0.001945 
0.001958 
0.001878 
0.001699 
0.001474 
0.001418 
0.001679 
0.001970 
0.002054 
0.002060 
0.002137 
0.002097 
0.001559 
0.000551 
0.000000 
0.000000 
0.001631 
0.002899 
0.003746 
0.004122 
0.003944 
0.003395 
0.003133 
0.003351 
0.003728 
0.003888 
0.003761 
0.003521 
0.003383 
0.003400 
0.003229 
0.002895 
0.002569 
0.002420 
0.002528 
0.002709 
0.002841 
0.003040 
0.003214 
0.003219 
0.003071 
0.003077 
0.003153 
0.003082 
0.002815 
0.002512 
0.002348 
0.002273 
0.002254 
0.002390 
0.002716 
0.002986 
0.002944 
0.002584 
0.002185 
0.005049 
0.004933 
0.004660 
0.004360 
0.003950 
0.002829 
0.001600 
0.000000 
0.002861 
0.004066 
0.003710 
0.002603 
0.001289 
0.001106 
0.001513 
0.002094 
0.002932 
0.003771 
0.004039 
0.003912 
0.004028 
0.004245 
0.004472 
0.004505 
0.004162 
0.003743 
0.003386 
0.003327 
0.003718 
0.004504 
0.005319 
0.005226 
0.004250 
0.003504 
0.003304 
0.003263 
0.003158 
0.003070 
0.002433 
0.000000 
0.000000 
0.000000 
0.000000 
0.002569 
0.003425 
0.003091 
0.002566 
0.002360 
0.002267 
0.002213 
0.002523 
0.003227 
0.003617 
0.003334 
0.002927 
0.002988 
0.003196 
0.002455 
0.000000 
0.000000 
0.000000 
0.002724 
0.004924 
0.006432 
0.007094 
0.006762 
0.005651 
0.005111 
0.005475 
0.006292 
0.006881 
0.006969 
0.006595 
0.006015 
0.005731 
0.005315 
0.004949 
0.004574 
0.004345 
0.004689 
0.005161 
0.005372 
0.005763 
0.006167 
0.006153 
0.005727 
0.005649 
0.005559 
0.005077 
0.004212 
0.003313 
0.002877 
0.002884 
0.003262 
0.004074 
0.005154 
0.005761 
0.005475 
0.004565 
0.003660 
0.011751 
0.011450 
0.010741 
0.010148 
0.009426 
0.006474 
0.004038 
0.004266 
0.007568 
0.009731 
0.008134 
0.004887 
0.000000 
0.000000 
0.001355 
0.002667 
0.005090 
0.007830 
0.009005 
0.008998 
0.009724 
0.010355 
0.010756 
0.010363 
0.008715 
0.007177 
0.005948 
0.005635 
0.006431 
0.008084 
0.010149 
0.010158 
0.008104 
0.006965 
0.007128 
0.007428 
0.007420 
0.007782 
0.007511 
0.006364 
0.006258 
0.006914 
0.007650 
0.008913 
0.008790 
0.006664 
0.004957 
0.004684 
0.004695 
0.004595 
0.005507 
0.007476 
0.008305 
0.007226 
0.005840 
0.005955 
0.007085 
0.006474 
0.003624 
0.000000 
0.002780 
0.006055 
0.010160 
0.013279 
0.014827 
0.014217 
0.011531 
0.010361 
0.011135 
0.012934 
0.014365 
0.014871 
0.014169 
0.012526 
0.011894 
0.011161 
0.011073 
0.010731 
0.010057 
0.010828 
0.011899 
0.012094 
0.013043 
0.014245 
0.014150 
0.012763 
0.012633 
0.012457 
0.011286 
0.008965 
0.006244 
0.004915 
0.005149 
0.006650 
0.009267 
0.012379 
0.013790 
0.012647 
0.010039 
0.007594 
0.014250 
0.013942 
0.012937 
0.012541 
0.011738 
0.008100 
0.005630 
0.007069 
0.011243 
0.013361 
0.011188 
0.007839 
0.003602 
0.000000 
0.000000 
0.000000 
0.003555 
0.008003 
0.011141 
0.012850 
0.015233 
0.016720 
0.017205 
0.016259 
0.013089 
0.010081 
0.007378 
0.006368 
0.007021 
0.008189 
0.009910 
0.010189 
0.009178 
0.009480 
0.010509 
0.011085 
0.011245 
0.011995 
0.012456 
0.012324 
0.012723 
0.013721 
0.014064 
0.013507 
0.011496 
0.008240 
0.006789 
0.007545 
0.007828 
0.006902 
0.007406 
0.009515 
0.010278 
0.009455 
0.007841 
0.007345 
0.008580 
0.008919 
0.007129 
0.005519 
0.005491 
0.006669 
0.009597 
0.012761 
0.015007 
0.014807 
0.012525 
0.011832 
0.012334 
0.013043 
0.013648 
0.014314 
0.014200 
0.013217 
0.013585 
0.014152 
0.015624 
0.016175 
0.014821 
0.014625 
0.015067 
0.014884 
0.015806 
0.017532 
0.017107 
0.015144 
0.014880 
0.015018 
0.014666 
0.012253 
0.008167 
0.005919 
0.006715 
0.009810 
0.013897 
0.017745 
0.018727 
0.016287 
0.012242 
0.009331 
0.015309 
0.015124 
0.014355 
0.014583 
0.013383 
0.009272 
0.007133 
0.009566 
0.014273 
0.015864 
0.013578 
0.010756 
0.006739 
0.003881 
0.002972 
0.001724 
0.000000 
0.006457 
0.011064 
0.014200 
0.017776 
0.020206 
0.020771 
0.019925 
0.016775 
0.013282 
0.009305 
0.007479 
0.007843 
0.008627 
0.010142 
0.010688 
0.010354 
0.011337 
0.012366 
0.012715 
0.012945 
0.013354 
0.014323 
0.015473 
0.016527 
0.017639 
0.017422 
0.015045 
0.011816 
0.008673 
0.008348 
0.010438 
0.011055 
0.008941 
0.008257 
0.009875 
0.011073 
0.011774 
0.010769 
0.009230 
0.009464 
0.009898 
0.009027 
0.008639 
0.008051 
0.007431 
0.008518 
0.010524 
0.012023 
0.011505 
0.010003 
0.010217 
0.011335 
0.011666 
0.011348 
0.011439 
0.011387 
0.011915 
0.014191 
0.016004 
0.017964 
0.018800 
0.016900 
0.015556 
0.015540 
0.015104 
0.015475 
0.017028 
0.016773 
0.015807 
0.016193 
0.016477 
0.016516 
0.014394 
0.009879 
0.007293 
0.008501 
0.012124 
0.016134 
0.019595 
0.020440 
0.017700 
0.013693 
0.011603 
0.018538 
0.018346 
0.017852 
0.018710 
0.016748 
0.011653 
0.009176 
0.011546 
0.015784 
0.016811 
0.014206 
0.011405 
0.007637 
0.005208 
0.004453 
0.003050 
0.002419 
0.006454 
0.010849 
0.013805 
0.016856 
0.019877 
0.021093 
0.020673 
0.018307 
0.014701 
0.010207 
0.008003 
0.008076 
0.009181 
0.011296 
0.012156 
0.011258 
0.011300 
0.011980 
0.013099 
0.014283 
0.014327 
0.014722 
0.015400 
0.016014 
0.017222 
0.016977 
0.013876 
0.010351 
0.007987 
0.008355 
0.010498 
0.011221 
0.009042 
0.007994 
0.009351 
0.011113 
0.013438 
0.013790 
0.011982 
0.011154 
0.010431 
0.009133 
0.009269 
0.009656 
0.009304 
0.010320 
0.011991 
0.012620 
0.010897 
0.008689 
0.008226 
0.009394 
0.010376 
0.010233 
0.009844 
0.009502 
0.011232 
0.015128 
0.017679 
0.019051 
0.018865 
0.016458 
0.014282 
0.013715 
0.013191 
0.013912 
0.016119 
0.017388 
0.018493 
0.019897 
0.020295 
0.020115 
0.018118 
0.013242 
0.009798 
0.009800 
0.011402 
0.013351 
0.016072 
0.018236 
0.017593 
0.015529 
0.014922 
0.020463 
0.020118 
0.019796 
0.021023 
0.018738 
0.013902 
0.011705 
0.013206 
0.015290 
0.015065 
0.012358 
0.009685 
0.006291 
0.003501 
0.002825 
0.001685 
0.000000 
0.006132 
0.010311 
0.012489 
0.014501 
0.017682 
0.019536 
0.019253 
0.017711 
0.014390 
0.010724 
0.009437 
0.009460 
0.010160 
0.011991 
0.013455 
0.012878 
0.012439 
0.012695 
0.013898 
0.015226 
0.015272 
0.015042 
0.014390 
0.013688 
0.014559 
0.014984 
0.013014 
0.010450 
0.009101 
0.009535 
0.010549 
0.010505 
0.008361 
0.006851 
0.007548 
0.009562 
0.012854 
0.014469 
0.013394 
0.011935 
0.009591 
0.007592 
0.008060 
0.009748 
0.010832 
0.013105 
0.015776 
0.016902 
0.014487 
0.010797 
0.008312 
0.008079 
0.008903 
0.009021 
0.008368 
0.008484 
0.011654 
0.016600 
0.018843 
0.018863 
0.016842 
0.014318 
0.012705 
0.012444 
0.012392 
0.014071 
0.017166 
0.020044 
0.023317 
0.025795 
0.025669 
0.024105 
0.022058 
0.017648 
0.013582 
0.011782 
0.010762 
0.010148 
0.011679 
0.014716 
0.016306 
0.016330 
0.016609 
0.018820 
0.018524 
0.018676 
0.020304 
0.018653 
0.015874 
0.015053 
0.015740 
0.015167 
0.013359 
0.011419 
0.009683 
0.006210 
0.000000 
0.000000 
0.000000 
0.003935 
0.008208 
0.010806 
0.010979 
0.011573 
0.014246 
0.016060 
0.015935 
0.015461 
0.013697 
0.012177 
0.013059 
0.013994 
0.014047 
0.014798 
0.016770 
0.016960 
0.016145 
0.015237 
0.014479 
0.014033 
0.013778 
0.013329 
0.012358 
0.011692 
0.012912 
0.014185 
0.013897 
0.013014 
0.012822 
0.013377 
0.013799 
0.013109 
0.010335 
0.007362 
0.006397 
0.007228 
0.009966 
0.012491 
0.012947 
0.011447 
0.008193 
0.006111 
0.007057 
0.009503 
0.011147 
0.013297 
0.016322 
0.018913 
0.017687 
0.014083 
0.010881 
0.009607 
0.009555 
0.009063 
0.007967 
0.008722 
0.012841 
0.017801 
0.019200 
0.018052 
0.015283 
0.013570 
0.012803 
0.012535 
0.012512 
0.014028 
0.016392 
0.019189 
0.023830 
0.028010 
0.028458 
0.026537 
0.024881 
0.021625 
0.017164 
0.013226 
0.010443 
0.008855 
0.010368 
0.014112 
0.016479 
0.017033 
0.017179 
0.016005 
0.015826 
0.016393 
0.018544 
0.018141 
0.017183 
0.016770 
0.016457 
0.014848 
0.013334 
0.013538 
0.013450 
0.010658 
0.006071 
0.004349 
0.005096 
0.007693 
0.011053 
0.012250 
0.009888 
0.008143 
0.009284 
0.010788 
0.011387 
0.012046 
0.012414 
0.013312 
0.016553 
0.019160 
0.018759 
0.017878 
0.019530 
0.020184 
0.018730 
0.016333 
0.012947 
0.010582 
0.010607 
0.011494 
0.011587 
0.011170 
0.011612 
0.012142 
0.012819 
0.014026 
0.015402 
0.016567 
0.017692 
0.017368 
0.014065 
0.009688 
0.007244 
0.006575 
0.008400 
0.011563 
0.013062 
0.011302 
0.007522 
0.005583 
0.006897 
0.009782 
0.011972 
0.013092 
0.014571 
0.017015 
0.017236 
0.015688 
0.014837 
0.014330 
0.012996 
0.010517 
0.008921 
0.010396 
0.014469 
0.017806 
0.018061 
0.016612 
0.014725 
0.014606 
0.014795 
0.014452 
0.013425 
0.013125 
0.013832 
0.015358 
0.019746 
0.025136 
0.027130 
0.026383 
0.025391 
0.023080 
0.018822 
0.013118 
0.009207 
0.008337 
0.011254 
0.015363 
0.016311 
0.015203 
0.014142 
0.010095 
0.010356 
0.011956 
0.015328 
0.016499 
0.015809 
0.013998 
0.012576 
0.011824 
0.012816 
0.016053 
0.017779 
0.015664 
0.010349 
0.007341 
0.007653 
0.009114 
0.011138 
0.011471 
0.008023 
0.004830 
0.005859 
0.007949 
0.009321 
0.009977 
0.011108 
0.013292 
0.017384 
0.020352 
0.019301 
0.017486 
0.018901 
0.020037 
0.018310 
0.014780 
0.009909 
0.006528 
0.007741 
0.010533 
0.011920 
0.011281 
0.010052 
0.009381 
0.010141 
0.012240 
0.014847 
0.016773 
0.018227 
0.018041 
0.014947 
0.010725 
0.008197 
0.006861 
0.007870 
0.010726 
0.011930 
0.009795 
0.006589 
0.005887 
0.008324 
0.011844 
0.014325 
0.013800 
0.012660 
0.013917 
0.015780 
0.017309 
0.020137 
0.021296 
0.018942 
0.014264 
0.012142 
0.013707 
0.016170 
0.016091 
0.014823 
0.014116 
0.013784 
0.014550 
0.015325 
0.015699 
0.014088 
0.012019 
0.011357 
0.011697 
0.014660 
0.019712 
0.022985 
0.024027 
0.023804 
0.021419 
0.017481 
0.011478 
0.007618 
0.008235 
0.012819 
0.017298 
0.017384 
0.015090 
0.013042 
0.004276 
0.004701 
0.006629 
0.011661 
0.014983 
0.014596 
0.011358 
0.009132 
0.009214 
0.011668 
0.016415 
0.019551 
0.018340 
0.012354 
0.008139 
0.007718 
0.008664 
0.009561 
0.009248 
0.005572 
0.000000 
0.004781 
0.008676 
0.010828 
0.010940 
0.011523 
0.012783 
0.014916 
0.016480 
0.015200 
0.014141 
0.016235 
0.017812 
0.015781 
0.011450 
0.006130 
0.000000 
0.003816 
0.008027 
0.010731 
0.010941 
0.009549 
0.008826 
0.009454 
0.011124 
0.013747 
0.015568 
0.016373 
0.015740 
0.013171 
0.009759 
0.007687 
0.006463 
0.006713 
0.008686 
0.009756 
0.008100 
0.005918 
0.006416 
0.009799 
0.013450 
0.015169 
0.013132 
0.010520 
0.011228 
0.014300 
0.017699 
0.022576 
0.024913 
0.022842 
0.017935 
0.016031 
0.016751 
0.016862 
0.013785 
0.011275 
0.011538 
0.012966 
0.013735 
0.013715 
0.014008 
0.012783 
0.011290 
0.011194 
0.010800 
0.011415 
0.014772 
0.018645 
0.020800 
0.020654 
0.017456 
0.013499 
0.008389 
0.005287 
0.007376 
0.012898 
0.017799 
0.018855 
0.017354 
0.015506 
0.000000 
0.000000 
0.000000 
0.008875 
0.014036 
0.014239 
0.010749 
0.008722 
0.009199 
0.010921 
0.014733 
0.018293 
0.018327 
0.012799 
0.008282 
0.007433 
0.008214 
0.008466 
0.007731 
0.004817 
0.002624 
0.005787 
0.010397 
0.013183 
0.013168 
0.013021 
0.012556 
0.011994 
0.011898 
0.010816 
0.010568 
0.013046 
0.014902 
0.012753 
0.008871 
0.004904 
0.000000 
0.000000 
0.006286 
0.010111 
0.011312 
0.010820 
0.010650 
0.010588 
0.010546 
0.011390 
0.011907 
0.012294 
0.012202 
0.010719 
0.008978 
0.008142 
0.007312 
0.006330 
0.006702 
0.007442 
0.006750 
0.005174 
0.005581 
0.008747 
0.012517 
0.014104 
0.012070 
0.009418 
0.010179 
0.013591 
0.016768 
0.021239 
0.023822 
0.022943 
0.019428 
0.017936 
0.016802 
0.015079 
0.011412 
0.009027 
0.010121 
0.012451 
0.012266 
0.010792 
0.010715 
0.010964 
0.011500 
0.012787 
0.011753 
0.009923 
0.010890 
0.013753 
0.015347 
0.014767 
0.011190 
0.007262 
0.003768 
0.000000 
0.004013 
0.009618 
0.014756 
0.017450 
0.017740 
0.016898 
0.004921 
0.004765 
0.005622 
0.010380 
0.015347 
0.015761 
0.012400 
0.010984 
0.011755 
0.012388 
0.014830 
0.018033 
0.018599 
0.013795 
0.009415 
0.007665 
0.007334 
0.006831 
0.005463 
0.002563 
0.000000 
0.005259 
0.010751 
0.014618 
0.014827 
0.013646 
0.011855 
0.010421 
0.010401 
0.009894 
0.009430 
0.011085 
0.012567 
0.011077 
0.008998 
0.007030 
0.004460 
0.004469 
0.008262 
0.012468 
0.014352 
0.014160 
0.013508 
0.012298 
0.011359 
0.010935 
0.009953 
0.010024 
0.010869 
0.010566 
0.010707 
0.011214 
0.010371 
0.007845 
0.006491 
0.006396 
0.006013 
0.004259 
0.003530 
0.005398 
0.009172 
0.011647 
0.010794 
0.008552 
0.008986 
0.011786 
0.014128 
0.017645 
0.020136 
0.020223 
0.018177 
0.016970 
0.014370 
0.012041 
0.009691 
0.008080 
0.009230 
0.011425 
0.010767 
0.008556 
0.008156 
0.009235 
0.010606 
0.012163 
0.010842 
0.008267 
0.008171 
0.009946 
0.010236 
0.008697 
0.004721 
0.000000 
0.000000 
0.000000 
0.000000 
0.006738 
0.012303 
0.015580 
0.016095 
0.014922 
0.009772 
0.009445 
0.009573 
0.011934 
0.015186 
0.015309 
0.012821 
0.012406 
0.013438 
0.013924 
0.015758 
0.018498 
0.019474 
0.016286 
0.012989 
0.010348 
0.008373 
0.006898 
0.004435 
0.000000 
0.000000 
0.005262 
0.010451 
0.014811 
0.016047 
0.015194 
0.012894 
0.011148 
0.011582 
0.011619 
0.010559 
0.011050 
0.011849 
0.011533 
0.011448 
0.010559 
0.007813 
0.007354 
0.010756 
0.015155 
0.017408 
0.017024 
0.015948 
0.014932 
0.014630 
0.013587 
0.010939 
0.010060 
0.011088 
0.011438 
0.012911 
0.014398 
0.013400 
0.009896 
0.007358 
0.005845 
0.004611 
0.002233 
0.000000 
0.000000 
0.004231 
0.007350 
0.007771 
0.006486 
0.006802 
0.008831 
0.010568 
0.013194 
0.015171 
0.015827 
0.015024 
0.014261 
0.011641 
0.010104 
0.009581 
0.008441 
0.008706 
0.009672 
0.008924 
0.006731 
0.005881 
0.006610 
0.008068 
0.009865 
0.009221 
0.006969 
0.006575 
0.007931 
0.007969 
0.005867 
0.000000 
0.000000 
0.000000 
0.000000 
0.000000 
0.005851 
0.010876 
0.013206 
0.013022 
0.011354 
0.012558 
0.012870 
0.013169 
0.013092 
0.013068 
0.012266 
0.010926 
0.011460 
0.012663 
0.013496 
0.014470 
0.016539 
0.018794 
0.018874 
0.017673 
0.014385 
0.010998 
0.008880 
0.006204 
0.004263 
0.004825 
0.007146 
0.010510 
0.013764 
0.015844 
0.016626 
0.014372 
0.011819 
0.011961 
0.012711 
0.012030 
0.012586 
0.013391 
0.013488 
0.013380 
0.011857 
0.008603 
0.008018 
0.011060 
0.014579 
0.016170 
0.016087 
0.016638 
0.017741 
0.018217 
0.016238 
0.012649 
0.011247 
0.011841 
0.011425 
0.012689 
0.015009 
0.014818 
0.011342 
0.008359 
0.005939 
0.003850 
0.000000 
0.000000 
0.000000 
0.000000 
0.004570 
0.006143 
0.005723 
0.006145 
0.007456 
0.008018 
0.009439 
0.011253 
0.012560 
0.012552 
0.011917 
0.009869 
0.009605 
0.010786 
0.010302 
0.009851 
0.008748 
0.007080 
0.005392 
0.004906 
0.005350 
0.006994 
0.009341 
0.009305 
0.007302 
0.007180 
0.009340 
0.010415 
0.008953 
0.006215 
0.005209 
0.003588 
0.000000 
0.000000 
0.005943 
0.010153 
0.011618 
0.011050 
0.009375 
0.012938 
0.014499 
0.016517 
0.015078 
0.012347 
0.010540 
0.009268 
0.009860 
0.011762 
0.013920 
0.014397 
0.015344 
0.017984 
0.020303 
0.020193 
0.016249 
0.012460 
0.010532 
0.008091 
0.007068 
0.008187 
0.009773 
0.011859 
0.013648 
0.015265 
0.016598 
0.014407 
0.012133 
0.012870 
0.014540 
0.013757 
0.014145 
0.014960 
0.014198 
0.012204 
0.009233 
0.005575 
0.004925 
0.006664 
0.008563 
0.009592 
0.011269 
0.014664 
0.018355 
0.019007 
0.016471 
0.013424 
0.012081 
0.011782 
0.010270 
0.010887 
0.013506 
0.013771 
0.010460 
0.007744 
0.006196 
0.005191 
0.002748 
0.000000 
0.000000 
0.002599 
0.005218 
0.006926 
0.006976 
0.007761 
0.008626 
0.007771 
0.007961 
0.009586 
0.011107 
0.011889 
0.011599 
0.010330 
0.011572 
0.014566 
0.014775 
0.014006 
0.010778 
0.007576 
0.006377 
0.006758 
0.006811 
0.008115 
0.010467 
0.010176 
0.008207 
0.008792 
0.012492 
0.015004 
0.013734 
0.011496 
0.010814 
0.009192 
0.006767 
0.006305 
0.008654 
0.011239 
0.011710 
0.010593 
0.009314 
0.012165 
0.014312 
0.017156 
0.014901 
0.011546 
0.010177 
0.009108 
0.009136 
0.011049 
0.014461 
0.016053 
0.016479 
0.017845 
0.019508 
0.019287 
0.016278 
0.013928 
0.012788 
0.010354 
0.008799 
0.009166 
0.010234 
0.011345 
0.012265 
0.012949 
0.013973 
0.012944 
0.012581 
0.014174 
0.015841 
0.014482 
0.014107 
0.013910 
0.011929 
0.009055 
0.005487 
0.000000 
0.000000 
0.000000 
0.000000 
0.000000 
0.005011 
0.010474 
0.015110 
0.015766 
0.014248 
0.012923 
0.011723 
0.010011 
0.007647 
0.007301 
0.009059 
0.009539 
0.007544 
0.006398 
0.006837 
0.007504 
0.005958 
0.004260 
0.004078 
0.005332 
0.006416 
0.007491 
0.007986 
0.009313 
0.009731 
0.008042 
0.007580 
0.008805 
0.009879 
0.010895 
0.011053 
0.011142 
0.013683 
0.017637 
0.018037 
0.017266 
0.013484 
0.009733 
0.009132 
0.010290 
0.009700 
0.009900 
0.011649 
0.011126 
0.008891 
0.008698 
0.011819 
0.014610 
0.013945 
0.013114 
0.013798 
0.013367 
0.012004 
0.011313 
0.011622 