# vtk DataFile Version 3.0
results.vtk
ASCII
DATASET RECTILINEAR_GRID
DIMENSIONS 100 100 1
X_COORDINATES 100 double
0.000000 0.010000 0.020000 0.030000 0.040000 0.050000 0.060000 0.070000 0.080000 0.090000 0.100000 0.110000 0.120000 0.130000 0.140000 0.150000 0.160000 0.170000 0.180000 0.190000 0.200000 0.210000 0.220000 0.230000 0.240000 0.250000 0.260000 0.270000 0.280000 0.290000 0.300000 0.310000 0.320000 0.330000 0.340000 0.350000 0.360000 0.370000 0.380000 0.390000 0.400000 0.410000 0.420000 0.430000 0.440000 0.450000 0.460000 0.470000 0.480000 0.490000 0.500000 0.510000 0.520000 0.530000 0.540000 0.550000 0.560000 0.570000 0.580000 0.590000 0.600000 0.610000 0.620000 0.630000 0.640000 0.650000 0.660000 0.670000 0.680000 0.690000 0.700000 0.710000 0.720000 0.730000 0.740000 0.750000 0.760000 0.770000 0.780000 0.790000 0.800000 0.810000 0.820000 0.830000 0.840000 0.850000 0.860000 0.870000 0.880000 0.890000 0.900000 0.910000 0.920000 0.930000 0.940000 0.950000 0.960000 0.970000 0.980000 0.990000 
Y_COORDINATES 100 double
0.000000 0.010000 0.020000 0.030000 0.040000 0.050000 0.060000 0.070000 0.080000 0.090000 0.100000 0.110000 0.120000 0.130000 0.140000 0.150000 0.160000 0.170000 0.180000 0.190000 0.200000 0.210000 0.220000 0.230000 0.240000 0.250000 0.260000 0.270000 0.280000 0.290000 0.300000 0.310000 0.320000 0.330000 0.340000 0.350000 0.360000 0.370000 0.380000 0.390000 0.400000 0.410000 0.420000 0.430000 0.440000 0.450000 0.460000 0.470000 0.480000 0.490000 0.500000 0.510000 0.520000 0.530000 0.540000 0.550000 0.560000 0.570000 0.580000 0.590000 0.600000 0.610000 0.620000 0.630000 0.640000 0.650000 0.660000 0.670000 0.680000 0.690000 0.700000 0.710000 0.720000 0.730000 0.740000 0.750000 0.760000 0.770000 0.780000 0.790000 0.800000 0.810000 0.820000 0.830000 0.840000 0.850000 0.860000 0.870000 0.880000 0.890000 0.900000 0.910000 0.920000 0.930000 0.940000 0.950000 0.960000 0.970000 0.980000 0.990000 
Z_COORDINATES 1 double
0
POINT_DATA 10000 
FIELD FieldData 1 
Concentração 1 10000 double 
0.004965 
0.004832 
0.004432 
0.003970 
0.003611 
0.003341 
0.003228 
0.003136 
0.003001 
0.003027 
0.003302 
0.003461 
0.003235 
0.003033 
0.003278 
0.003766 
0.004007 
0.003836 
0.003545 
0.003476 
0.003691 
0.003955 
0.004020 
0.003950 
0.003771 
0.003415 
0.002971 
0.002691 
0.002604 
0.002571 
0.002684 
0.002992 
0.003170 
0.002981 
0.002632 
0.002486 
0.002450 
0.002228 
0.001954 
0.001960 
0.002290 
0.002700 
0.002850 
0.002421 
0.001380 
0.000000 
0.000930 
0.001865 
0.002829 
0.003693 
0.004079 
0.003620 
0.002537 
0.001258 
0.000000 
0.000000 
0.000000 
0.002575 
0.004273 
0.004931 
0.004670 
0.004091 
0.003567 
0.003264 
0.003057 
0.002900 
0.002901 
0.002950 
0.002804 
0.002501 
0.002097 
0.001751 
0.001546 
0.001531 
0.001626 
0.001664 
0.001384 
0.000764 
0.000000 
0.000000 
0.001116 
0.001982 
0.002811 
0.003477 
0.003795 
0.003657 
0.003205 
0.002843 
0.002732 
0.002844 
0.002974 
0.002822 
0.002315 
0.001859 
0.001772 
0.002010 
0.002194 
0.001920 
0.001233 
0.000000 
0.004748 
0.004620 
0.004241 
0.003790 
0.003406 
0.003109 
0.002997 
0.002962 
0.002941 
0.003083 
0.003399 
0.003502 
0.003179 
0.002911 
0.003144 
0.003675 
0.003975 
0.003817 
0.003474 
0.003341 
0.003520 
0.003787 
0.003913 
0.003920 
0.003784 
0.003474 
0.003082 
0.002809 
0.002675 
0.002574 
0.002615 
0.002872 
0.003051 
0.002914 
0.002627 
0.002505 
0.002446 
0.002203 
0.001936 
0.001944 
0.002246 
0.002631 
0.002781 
0.002392 
0.001417 
0.000000 
0.000953 
0.001780 
0.002629 
0.003452 
0.003884 
0.003517 
0.002507 
0.001265 
0.000000 
0.000000 
0.001080 
0.002858 
0.004327 
0.004863 
0.004525 
0.003905 
0.003387 
0.003132 
0.003020 
0.002971 
0.003018 
0.003042 
0.002862 
0.002558 
0.002188 
0.001880 
0.001690 
0.001672 
0.001753 
0.001758 
0.001430 
0.000779 
0.000000 
0.000492 
0.001249 
0.002009 
0.002789 
0.003410 
0.003664 
0.003505 
0.003125 
0.002874 
0.002819 
0.002876 
0.002899 
0.002714 
0.002285 
0.001921 
0.001846 
0.002022 
0.002159 
0.001929 
0.001434 
0.000895 
0.004166 
0.004064 
0.003770 
0.003387 
0.002963 
0.002598 
0.002490 
0.002619 
0.002895 
0.003290 
0.003646 
0.003586 
0.003054 
0.002657 
0.002861 
0.003457 
0.003870 
0.003761 
0.003345 
0.003090 
0.003183 
0.003454 
0.003704 
0.003852 
0.003784 
0.003569 
0.003298 
0.003027 
0.002759 
0.002477 
0.002348 
0.002516 
0.002741 
0.002756 
0.002631 
0.002580 
0.002485 
0.002214 
0.001976 
0.001966 
0.002158 
0.002431 
0.002564 
0.002312 
0.001659 
0.001025 
0.001175 
0.001586 
0.002125 
0.002862 
0.003398 
0.003265 
0.002474 
0.001354 
0.000000 
0.000000 
0.001404 
0.002995 
0.004229 
0.004559 
0.004111 
0.003444 
0.002956 
0.002803 
0.002903 
0.003102 
0.003241 
0.003185 
0.002911 
0.002603 
0.002314 
0.002089 
0.001924 
0.001894 
0.001962 
0.001937 
0.001549 
0.000847 
0.000000 
0.000660 
0.001303 
0.001939 
0.002628 
0.003174 
0.003336 
0.003196 
0.003034 
0.003063 
0.003128 
0.003042 
0.002819 
0.002566 
0.002316 
0.002154 
0.002090 
0.002114 
0.002115 
0.001901 
0.001560 
0.001261 
0.003448 
0.003408 
0.003286 
0.003072 
0.002681 
0.002276 
0.002201 
0.002549 
0.003149 
0.003728 
0.003979 
0.003654 
0.002906 
0.002396 
0.002522 
0.003066 
0.003516 
0.003519 
0.003175 
0.002902 
0.002938 
0.003215 
0.003554 
0.003769 
0.003692 
0.003517 
0.003342 
0.003066 
0.002655 
0.002192 
0.001929 
0.002135 
0.002510 
0.002721 
0.002741 
0.002733 
0.002610 
0.002353 
0.002164 
0.002096 
0.002098 
0.002197 
0.002318 
0.002240 
0.001853 
0.001444 
0.001297 
0.001286 
0.001348 
0.002109 
0.002768 
0.002917 
0.002482 
0.001674 
0.000703 
0.000000 
0.001337 
0.002732 
0.003726 
0.003929 
0.003523 
0.002951 
0.002567 
0.002520 
0.002799 
0.003208 
0.003413 
0.003257 
0.002874 
0.002545 
0.002317 
0.002143 
0.001962 
0.001889 
0.001963 
0.001994 
0.001679 
0.001022 
0.000000 
0.000759 
0.001254 
0.001746 
0.002358 
0.002895 
0.003083 
0.003064 
0.003157 
0.003437 
0.003566 
0.003311 
0.002882 
0.002617 
0.002554 
0.002550 
0.002459 
0.002327 
0.002183 
0.001921 
0.001627 
0.001415 
0.002839 
0.002862 
0.002919 
0.002921 
0.002684 
0.002352 
0.002370 
0.002922 
0.003736 
0.004336 
0.004353 
0.003734 
0.002825 
0.002255 
0.002279 
0.002660 
0.003046 
0.003192 
0.003080 
0.002929 
0.002963 
0.003222 
0.003557 
0.003723 
0.003538 
0.003264 
0.003037 
0.002721 
0.002256 
0.001707 
0.001311 
0.001787 
0.002370 
0.002724 
0.002805 
0.002800 
0.002701 
0.002555 
0.002478 
0.002369 
0.002194 
0.002132 
0.002252 
0.002338 
0.002169 
0.001885 
0.001574 
0.001112 
0.000000 
0.001453 
0.002231 
0.002586 
0.002502 
0.001978 
0.001067 
0.000000 
0.000886 
0.001977 
0.002749 
0.002986 
0.002814 
0.002493 
0.002285 
0.002318 
0.002651 
0.003144 
0.003414 
0.003256 
0.002825 
0.002459 
0.002248 
0.002084 
0.001869 
0.001739 
0.001824 
0.001979 
0.001888 
0.001533 
0.001120 
0.001167 
0.001336 
0.001654 
0.002201 
0.002787 
0.003108 
0.003250 
0.003487 
0.003826 
0.003892 
0.003511 
0.003031 
0.002858 
0.002934 
0.002964 
0.002790 
0.002558 
0.002355 
0.002081 
0.001834 
0.001689 
0.002651 
0.002693 
0.002815 
0.002934 
0.002863 
0.002682 
0.002824 
0.003491 
0.004331 
0.004801 
0.004581 
0.003776 
0.002815 
0.002244 
0.002195 
0.002423 
0.002726 
0.002998 
0.003127 
0.003144 
0.003217 
0.003441 
0.003721 
0.003819 
0.003535 
0.003079 
0.002645 
0.002219 
0.001753 
0.001146 
0.000000 
0.001367 
0.002106 
0.002492 
0.002607 
0.002657 
0.002686 
0.002747 
0.002852 
0.002776 
0.002502 
0.002322 
0.002426 
0.002612 
0.002618 
0.002486 
0.002205 
0.001772 
0.001310 
0.001568 
0.001953 
0.002302 
0.002471 
0.002209 
0.001362 
0.000000 
0.000000 
0.000921 
0.001474 
0.001895 
0.002063 
0.002048 
0.002024 
0.002116 
0.002418 
0.002899 
0.003258 
0.003239 
0.002882 
0.002495 
0.002241 
0.002029 
0.001778 
0.001612 
0.001725 
0.002002 
0.002124 
0.001993 
0.001735 
0.001579 
0.001582 
0.001789 
0.002267 
0.002869 
0.003303 
0.003567 
0.003855 
0.004116 
0.004034 
0.003553 
0.003116 
0.003096 
0.003305 
0.003337 
0.003067 
0.002743 
0.002511 
0.002297 
0.002174 
0.002134 
0.002881 
0.002910 
0.002985 
0.003049 
0.003014 
0.002953 
0.003208 
0.003911 
0.004650 
0.004927 
0.004551 
0.003709 
0.002794 
0.002239 
0.002107 
0.002216 
0.002459 
0.002806 
0.003123 
0.003345 
0.003562 
0.003808 
0.004059 
0.004175 
0.003918 
0.003329 
0.002647 
0.002078 
0.001675 
0.001373 
0.001140 
0.001545 
0.001904 
0.002108 
0.002182 
0.002272 
0.002431 
0.002687 
0.002975 
0.002999 
0.002724 
0.002487 
0.002551 
0.002770 
0.002925 
0.002991 
0.002855 
0.002475 
0.001978 
0.001677 
0.001636 
0.001889 
0.002286 
0.002359 
0.001827 
0.000892 
0.000000 
0.000000 
0.000000 
0.000829 
0.001404 
0.001697 
0.001832 
0.001963 
0.002210 
0.002612 
0.002993 
0.003150 
0.002988 
0.002654 
0.002323 
0.001995 
0.001664 
0.001447 
0.001612 
0.001974 
0.002231 
0.002239 
0.002043 
0.001857 
0.001851 
0.002042 
0.002444 
0.002952 
0.003361 
0.003670 
0.004007 
0.004239 
0.004077 
0.003545 
0.003131 
0.003196 
0.003520 
0.003613 
0.003316 
0.002908 
0.002602 
0.002405 
0.002363 
0.002392 
0.003090 
0.003119 
0.003135 
0.003056 
0.002916 
0.002874 
0.003182 
0.003884 
0.004542 
0.004708 
0.004318 
0.003584 
0.002795 
0.002255 
0.001993 
0.001955 
0.002119 
0.002489 
0.002948 
0.003400 
0.003825 
0.004136 
0.004408 
0.004649 
0.004543 
0.003931 
0.003086 
0.002418 
0.002067 
0.001934 
0.001858 
0.001904 
0.001936 
0.001926 
0.001874 
0.001872 
0.002011 
0.002327 
0.002700 
0.002801 
0.002567 
0.002321 
0.002354 
0.002616 
0.002947 
0.003233 
0.003271 
0.002954 
0.002326 
0.001614 
0.001093 
0.001227 
0.001946 
0.002404 
0.002269 
0.001662 
0.000888 
0.000000 
0.000000 
0.000000 
0.001030 
0.001602 
0.001845 
0.001990 
0.002208 
0.002510 
0.002796 
0.003030 
0.003083 
0.002860 
0.002449 
0.001945 
0.001437 
0.001028 
0.001405 
0.001865 
0.002203 
0.002307 
0.002157 
0.001995 
0.002046 
0.002303 
0.002669 
0.003027 
0.003288 
0.003530 
0.003887 
0.004165 
0.004061 
0.003598 
0.003213 
0.003275 
0.003628 
0.003774 
0.003506 
0.003067 
0.002673 
0.002379 
0.002234 
0.002188 
0.002982 
0.003017 
0.002997 
0.002794 
0.002529 
0.002445 
0.002755 
0.003464 
0.004145 
0.004341 
0.004055 
0.003496 
0.002871 
0.002379 
0.002020 
0.001850 
0.001911 
0.002210 
0.002682 
0.003236 
0.003778 
0.004145 
0.004478 
0.004868 
0.004923 
0.004366 
0.003519 
0.002885 
0.002643 
0.002644 
0.002589 
0.002454 
0.002294 
0.002139 
0.001946 
0.001766 
0.001761 
0.002010 
0.002346 
0.002431 
0.002190 
0.001899 
0.001877 
0.002228 
0.002771 
0.003252 
0.003417 
0.003141 
0.002410 
0.001363 
0.000000 
0.000000 
0.001563 
0.002403 
0.002660 
0.002408 
0.001821 
0.000966 
0.000000 
0.000000 
0.001035 
0.001781 
0.002135 
0.002327 
0.002555 
0.002737 
0.002813 
0.002985 
0.003202 
0.003156 
0.002745 
0.002091 
0.001310 
0.000000 
0.001334 
0.001932 
0.002228 
0.002326 
0.002218 
0.002099 
0.002177 
0.002462 
0.002797 
0.003026 
0.003125 
0.003248 
0.003575 
0.003921 
0.003973 
0.003686 
0.003361 
0.003332 
0.003548 
0.003615 
0.003375 
0.003030 
0.002705 
0.002388 
0.002106 
0.001919 
0.002772 
0.002785 
0.002699 
0.002417 
0.002104 
0.001984 
0.002226 
0.002865 
0.003570 
0.003870 
0.003755 
0.003400 
0.002961 
0.002586 
0.002258 
0.002072 
0.002065 
0.002229 
0.002544 
0.002958 
0.003424 
0.003800 
0.004204 
0.004697 
0.004847 
0.004388 
0.003673 
0.003184 
0.003123 
0.003324 
0.003388 
0.003198 
0.002893 
0.002597 
0.002282 
0.001959 
0.001800 
0.001903 
0.002084 
0.002055 
0.001769 
0.001389 
0.001202 
0.001702 
0.002479 
0.003105 
0.003358 
0.003154 
0.002461 
0.001407 
0.000000 
0.000777 
0.001727 
0.002476 
0.002911 
0.002963 
0.002598 
0.001783 
0.000765 
0.000000 
0.001044 
0.001989 
0.002583 
0.002948 
0.003225 
0.003249 
0.003045 
0.003069 
0.003388 
0.003553 
0.003266 
0.002655 
0.002061 
0.001752 
0.002228 
0.002511 
0.002525 
0.002453 
0.002348 
0.002263 
0.002296 
0.002495 
0.002768 
0.002947 
0.002983 
0.003005 
0.003268 
0.003667 
0.003877 
0.003754 
0.003487 
0.003350 
0.003340 
0.003224 
0.002977 
0.002804 
0.002720 
0.002568 
0.002266 
0.001975 
0.002768 
0.002738 
0.002582 
0.002292 
0.002017 
0.001818 
0.001839 
0.002237 
0.002966 
0.003411 
0.003444 
0.003225 
0.002928 
0.002726 
0.002568 
0.002506 
0.002519 
0.002583 
0.002660 
0.002760 
0.002994 
0.003301 
0.003730 
0.004254 
0.004476 
0.004197 
0.003718 
0.003430 
0.003563 
0.003998 
0.004275 
0.004071 
0.003527 
0.003003 
0.002606 
0.002264 
0.002027 
0.001965 
0.001893 
0.001630 
0.001290 
0.000790 
0.000000 
0.000935 
0.002082 
0.002778 
0.003048 
0.002959 
0.002478 
0.001768 
0.001209 
0.001488 
0.002068 
0.002559 
0.002912 
0.003102 
0.002927 
0.002157 
0.001012 
0.000000 
0.000826 
0.002107 
0.003154 
0.003861 
0.004245 
0.004103 
0.003588 
0.003418 
0.003764 
0.004102 
0.004002 
0.003543 
0.003125 
0.003097 
0.003429 
0.003456 
0.003129 
0.002797 
0.002640 
0.002624 
0.002668 
0.002791 
0.003027 
0.003215 
0.003239 
0.003146 
0.003293 
0.003649 
0.003876 
0.003779 
0.003529 
0.003356 
0.003213 
0.002988 
0.002796 
0.002844 
0.003031 
0.003054 
0.002741 
0.002345 
0.003584 
0.003510 
0.003307 
0.003031 
0.002756 
0.002214 
0.001694 
0.001550 
0.002742 
0.003545 
0.003554 
0.003125 
0.002629 
0.002504 
0.002608 
0.002828 
0.003098 
0.003331 
0.003300 
0.003113 
0.003151 
0.003376 
0.003752 
0.004174 
0.004338 
0.004183 
0.003906 
0.003803 
0.004117 
0.004802 
0.005382 
0.005168 
0.004254 
0.003451 
0.003049 
0.002794 
0.002549 
0.002368 
0.001948 
0.001068 
0.000723 
0.000398 
0.000000 
0.000000 
0.002207 
0.002804 
0.002845 
0.002754 
0.002482 
0.002104 
0.001966 
0.002341 
0.002795 
0.002924 
0.002944 
0.003103 
0.003093 
0.002305 
0.000834 
0.000000 
0.000000 
0.002361 
0.004212 
0.005438 
0.005999 
0.005703 
0.004786 
0.004375 
0.004755 
0.005350 
0.005554 
0.005302 
0.004926 
0.004790 
0.004940 
0.004692 
0.004115 
0.003564 
0.003332 
0.003510 
0.003774 
0.003938 
0.004229 
0.004485 
0.004490 
0.004231 
0.004255 
0.004430 
0.004387 
0.004033 
0.003636 
0.003453 
0.003334 
0.003217 
0.003312 
0.003759 
0.004189 
0.004180 
0.003657 
0.003026 
0.006807 
0.006637 
0.006266 
0.005860 
0.005403 
0.003809 
0.002077 
0.000000 
0.003893 
0.005641 
0.005113 
0.003606 
0.001887 
0.001673 
0.002247 
0.003043 
0.004159 
0.005291 
0.005523 
0.005158 
0.005253 
0.005526 
0.005876 
0.006011 
0.005622 
0.005136 
0.004695 
0.004623 
0.005173 
0.006329 
0.007605 
0.007446 
0.005861 
0.004698 
0.004423 
0.004367 
0.004175 
0.004074 
0.003227 
0.000000 
0.000000 
0.000000 
0.000000 
0.003464 
0.004720 
0.004219 
0.003450 
0.003174 
0.003045 
0.002942 
0.003347 
0.004390 
0.004990 
0.004533 
0.003908 
0.004051 
0.004459 
0.003422 
0.000000 
0.000000 
0.000000 
0.003769 
0.006936 
0.009048 
0.009959 
0.009443 
0.007675 
0.006863 
0.007460 
0.008728 
0.009587 
0.009664 
0.009086 
0.008233 
0.007924 
0.007268 
0.006655 
0.006034 
0.005670 
0.006250 
0.006991 
0.007225 
0.007779 
0.008357 
0.008352 
0.007681 
0.007639 
0.007567 
0.006887 
0.005684 
0.004479 
0.003966 
0.003963 
0.004365 
0.005382 
0.006909 
0.007820 
0.007458 
0.006195 
0.004844 
0.015786 
0.015346 
0.014355 
0.013542 
0.012877 
0.008555 
0.004986 
0.005302 
0.010037 
0.013313 
0.010871 
0.006418 
0.000000 
0.000000 
0.001897 
0.003702 
0.006983 
0.010805 
0.012132 
0.011661 
0.012582 
0.013352 
0.013956 
0.013527 
0.011252 
0.009295 
0.007712 
0.007337 
0.008457 
0.010809 
0.014020 
0.014017 
0.010687 
0.008931 
0.009235 
0.009693 
0.009573 
0.010188 
0.009823 
0.008126 
0.007948 
0.008925 
0.009949 
0.011897 
0.011956 
0.008806 
0.006286 
0.005939 
0.005984 
0.005816 
0.007108 
0.010078 
0.011322 
0.009580 
0.007457 
0.007759 
0.009689 
0.008841 
0.004779 
0.000000 
0.003530 
0.008054 
0.013992 
0.018271 
0.020351 
0.019485 
0.015283 
0.013587 
0.014794 
0.017576 
0.019710 
0.020428 
0.019370 
0.016765 
0.015945 
0.014678 
0.014520 
0.013975 
0.012901 
0.014239 
0.015940 
0.016006 
0.017375 
0.019150 
0.019078 
0.016897 
0.016930 
0.016772 
0.015067 
0.011799 
0.008008 
0.006293 
0.006588 
0.008468 
0.011951 
0.016420 
0.018511 
0.016955 
0.013373 
0.009779 
0.018672 
0.018281 
0.016731 
0.016283 
0.015632 
0.010384 
0.006804 
0.008826 
0.014859 
0.017946 
0.014657 
0.010231 
0.004621 
0.000000 
0.000000 
0.000000 
0.004717 
0.010713 
0.014857 
0.016818 
0.020180 
0.022085 
0.022776 
0.021584 
0.016959 
0.012947 
0.009253 
0.007972 
0.008983 
0.010450 
0.012908 
0.013254 
0.011659 
0.012235 
0.013833 
0.014645 
0.014723 
0.015915 
0.016578 
0.016208 
0.016688 
0.018173 
0.018655 
0.018015 
0.015314 
0.010554 
0.008518 
0.009802 
0.010251 
0.008760 
0.009493 
0.012689 
0.013622 
0.012295 
0.009861 
0.009204 
0.011280 
0.011990 
0.009379 
0.007233 
0.006955 
0.008366 
0.012427 
0.016804 
0.020097 
0.019898 
0.016418 
0.015536 
0.016177 
0.017024 
0.017789 
0.018862 
0.018824 
0.017139 
0.017659 
0.018294 
0.020591 
0.021514 
0.019329 
0.019179 
0.019883 
0.019390 
0.020692 
0.023414 
0.022729 
0.019550 
0.019292 
0.019598 
0.019418 
0.016215 
0.010359 
0.007231 
0.008366 
0.012652 
0.018271 
0.023720 
0.025011 
0.021518 
0.015769 
0.011624 
0.019541 
0.019358 
0.018142 
0.018741 
0.017447 
0.011583 
0.008589 
0.012147 
0.019038 
0.021166 
0.017799 
0.014351 
0.008837 
0.005077 
0.004069 
0.002329 
0.000000 
0.008365 
0.014491 
0.018494 
0.023562 
0.026827 
0.027402 
0.026405 
0.021975 
0.017473 
0.011893 
0.009483 
0.010198 
0.011049 
0.013112 
0.013797 
0.013249 
0.014921 
0.016380 
0.016603 
0.016739 
0.017220 
0.018662 
0.020421 
0.021896 
0.023500 
0.023261 
0.019880 
0.015503 
0.011001 
0.010687 
0.014063 
0.015051 
0.011615 
0.010510 
0.012929 
0.014450 
0.015520 
0.013974 
0.011581 
0.012089 
0.013010 
0.011819 
0.011523 
0.010542 
0.009247 
0.010526 
0.013184 
0.015332 
0.014650 
0.012555 
0.013155 
0.014891 
0.015146 
0.014443 
0.014633 
0.014527 
0.015099 
0.018374 
0.020676 
0.023496 
0.024975 
0.022076 
0.020205 
0.020449 
0.019707 
0.020000 
0.022302 
0.021645 
0.019994 
0.020656 
0.021015 
0.021391 
0.018713 
0.012319 
0.008822 
0.010763 
0.016033 
0.021570 
0.026338 
0.027358 
0.023212 
0.017388 
0.014611 
0.024172 
0.023948 
0.023082 
0.024785 
0.022242 
0.014757 
0.011197 
0.014733 
0.021079 
0.022531 
0.018680 
0.015182 
0.009979 
0.006896 
0.006247 
0.004180 
0.003140 
0.008330 
0.014259 
0.017938 
0.021949 
0.026141 
0.027670 
0.027222 
0.024070 
0.019352 
0.012961 
0.009953 
0.010183 
0.011701 
0.014855 
0.015991 
0.014346 
0.014384 
0.015287 
0.016861 
0.018669 
0.018459 
0.018983 
0.020022 
0.020837 
0.022726 
0.022506 
0.017934 
0.013042 
0.009762 
0.010429 
0.013758 
0.015008 
0.011645 
0.010149 
0.012224 
0.014479 
0.017897 
0.018403 
0.015515 
0.014516 
0.013746 
0.011826 
0.012185 
0.012789 
0.011899 
0.013137 
0.015335 
0.016136 
0.013608 
0.010584 
0.010182 
0.012111 
0.013606 
0.013285 
0.012740 
0.011928 
0.014105 
0.019666 
0.023059 
0.024965 
0.024945 
0.021473 
0.018290 
0.017666 
0.016754 
0.017563 
0.020704 
0.022223 
0.023581 
0.025557 
0.026094 
0.026185 
0.023783 
0.016808 
0.012075 
0.012392 
0.014687 
0.017199 
0.020941 
0.024100 
0.023076 
0.020018 
0.019449 
0.027001 
0.026436 
0.025754 
0.028014 
0.024822 
0.017666 
0.014553 
0.016877 
0.019996 
0.019794 
0.015844 
0.012392 
0.007886 
0.004476 
0.003861 
0.002278 
0.000000 
0.007856 
0.013450 
0.016201 
0.018649 
0.023167 
0.025757 
0.025264 
0.023327 
0.018690 
0.013442 
0.011772 
0.011751 
0.012620 
0.015283 
0.017402 
0.016303 
0.015664 
0.016043 
0.017973 
0.020131 
0.020084 
0.019773 
0.018762 
0.017442 
0.018728 
0.019514 
0.016666 
0.013039 
0.011217 
0.011926 
0.013354 
0.013419 
0.010393 
0.008380 
0.009526 
0.012299 
0.017134 
0.019392 
0.017581 
0.015710 
0.012435 
0.009491 
0.010234 
0.012730 
0.014002 
0.017239 
0.021015 
0.022596 
0.018930 
0.013668 
0.010162 
0.009962 
0.011343 
0.011618 
0.010609 
0.010436 
0.014747 
0.021850 
0.024723 
0.024721 
0.021766 
0.018215 
0.016047 
0.015922 
0.015694 
0.018046 
0.022469 
0.026319 
0.030798 
0.034142 
0.033678 
0.031391 
0.028960 
0.022817 
0.017291 
0.015230 
0.013844 
0.012607 
0.014508 
0.018828 
0.021080 
0.021068 
0.021638 
0.024528 
0.024007 
0.024061 
0.026793 
0.024282 
0.020336 
0.019472 
0.020749 
0.019775 
0.017059 
0.014336 
0.012260 
0.007794 
0.000000 
0.000000 
0.000000 
0.005051 
0.010707 
0.014139 
0.014076 
0.014756 
0.018743 
0.021254 
0.020784 
0.020315 
0.017756 
0.015476 
0.016909 
0.018118 
0.017956 
0.018925 
0.021987 
0.022155 
0.021027 
0.019862 
0.018953 
0.018404 
0.018054 
0.017307 
0.015773 
0.014679 
0.016647 
0.018712 
0.018308 
0.016939 
0.016631 
0.017409 
0.017886 
0.016984 
0.013161 
0.009040 
0.007806 
0.008895 
0.012736 
0.016252 
0.016885 
0.014969 
0.010350 
0.007407 
0.008844 
0.012350 
0.014274 
0.017110 
0.021421 
0.025433 
0.023639 
0.018393 
0.013661 
0.011867 
0.012072 
0.011660 
0.009926 
0.010680 
0.016437 
0.023624 
0.025312 
0.023622 
0.019484 
0.017202 
0.016253 
0.015947 
0.015884 
0.018159 
0.021370 
0.024931 
0.031434 
0.037314 
0.037585 
0.034554 
0.032652 
0.028425 
0.022354 
0.017152 
0.013505 
0.010984 
0.012850 
0.018190 
0.021591 
0.022415 
0.022711 
0.021151 
0.020730 
0.021251 
0.024488 
0.023641 
0.022484 
0.022256 
0.022055 
0.019545 
0.017076 
0.017485 
0.017663 
0.013926 
0.007700 
0.005475 
0.006676 
0.010129 
0.014916 
0.016583 
0.012795 
0.010141 
0.011770 
0.013755 
0.014390 
0.015452 
0.016011 
0.017052 
0.021806 
0.025654 
0.024843 
0.023208 
0.025805 
0.026780 
0.024688 
0.021580 
0.016791 
0.013437 
0.013556 
0.014840 
0.014897 
0.014250 
0.015057 
0.015778 
0.016712 
0.018482 
0.020342 
0.021785 
0.023470 
0.023291 
0.018690 
0.012444 
0.009145 
0.008077 
0.010552 
0.015137 
0.017461 
0.015056 
0.009538 
0.006718 
0.008525 
0.012508 
0.015411 
0.016751 
0.018711 
0.022434 
0.022624 
0.020172 
0.018958 
0.018334 
0.016630 
0.013214 
0.010873 
0.012908 
0.018785 
0.023634 
0.023828 
0.021666 
0.018851 
0.019008 
0.019397 
0.018850 
0.017287 
0.016876 
0.017793 
0.019463 
0.025509 
0.033246 
0.035758 
0.034380 
0.033222 
0.030465 
0.024902 
0.016916 
0.011579 
0.010258 
0.014316 
0.020191 
0.021176 
0.019424 
0.017908 
0.012974 
0.013241 
0.015334 
0.020163 
0.021530 
0.020543 
0.018017 
0.016117 
0.015015 
0.016357 
0.021223 
0.023776 
0.020944 
0.013357 
0.009352 
0.010086 
0.011931 
0.014801 
0.015496 
0.010403 
0.005904 
0.007149 
0.009921 
0.011697 
0.012458 
0.014017 
0.016993 
0.023027 
0.027473 
0.025637 
0.022536 
0.024706 
0.026508 
0.024137 
0.019509 
0.012711 
0.008161 
0.009940 
0.014015 
0.015884 
0.014724 
0.012800 
0.011666 
0.012684 
0.015668 
0.019333 
0.021880 
0.024036 
0.024051 
0.019791 
0.013899 
0.010668 
0.008679 
0.010027 
0.014238 
0.015973 
0.012812 
0.008168 
0.007195 
0.010620 
0.015484 
0.019107 
0.018114 
0.016090 
0.017867 
0.020452 
0.022348 
0.026607 
0.028404 
0.025051 
0.018118 
0.015142 
0.017644 
0.021364 
0.021011 
0.019127 
0.018227 
0.017655 
0.018897 
0.020123 
0.020935 
0.018537 
0.015314 
0.014276 
0.014445 
0.018454 
0.025653 
0.029995 
0.031293 
0.031214 
0.028139 
0.023201 
0.014743 
0.009378 
0.010239 
0.016769 
0.023108 
0.022700 
0.019160 
0.016151 
0.005226 
0.005765 
0.008335 
0.015176 
0.019772 
0.019137 
0.014304 
0.011143 
0.011300 
0.014753 
0.021702 
0.026199 
0.024658 
0.015930 
0.010123 
0.009861 
0.011198 
0.012419 
0.012279 
0.007211 
0.000000 
0.006027 
0.011321 
0.014172 
0.013921 
0.014680 
0.016377 
0.019401 
0.021761 
0.019652 
0.017903 
0.021124 
0.023564 
0.020746 
0.014832 
0.007699 
0.000000 
0.004863 
0.010465 
0.014116 
0.014278 
0.012044 
0.010948 
0.011876 
0.014199 
0.018058 
0.020582 
0.021633 
0.020736 
0.017225 
0.012424 
0.009725 
0.008021 
0.008369 
0.011343 
0.012987 
0.010487 
0.007322 
0.008113 
0.012968 
0.017937 
0.020324 
0.017095 
0.013042 
0.014009 
0.018350 
0.022833 
0.029978 
0.033342 
0.030362 
0.023053 
0.020633 
0.022121 
0.022541 
0.017745 
0.014054 
0.014628 
0.016810 
0.017942 
0.017846 
0.018518 
0.016622 
0.014283 
0.014293 
0.013613 
0.014194 
0.018904 
0.024396 
0.027461 
0.027437 
0.022919 
0.017891 
0.010781 
0.006552 
0.009423 
0.017188 
0.023954 
0.025059 
0.022724 
0.019950 
0.000000 
0.000000 
0.000000 
0.011374 
0.018466 
0.018626 
0.013419 
0.010636 
0.011437 
0.013575 
0.018835 
0.023931 
0.024363 
0.016338 
0.010127 
0.009360 
0.010772 
0.011138 
0.010379 
0.006321 
0.003373 
0.007490 
0.013853 
0.017509 
0.017095 
0.017011 
0.016342 
0.015278 
0.015117 
0.013440 
0.013014 
0.016797 
0.019720 
0.016531 
0.011127 
0.006032 
0.000000 
0.000000 
0.007954 
0.013015 
0.014490 
0.013676 
0.013644 
0.013654 
0.013355 
0.014531 
0.015194 
0.015721 
0.015667 
0.013598 
0.011171 
0.010196 
0.009205 
0.007779 
0.008390 
0.009640 
0.008763 
0.006458 
0.007015 
0.011517 
0.016749 
0.018847 
0.015691 
0.011710 
0.012854 
0.017771 
0.021709 
0.027960 
0.031520 
0.030333 
0.025174 
0.023509 
0.022100 
0.019914 
0.014513 
0.011069 
0.012871 
0.016504 
0.016020 
0.013666 
0.013713 
0.014120 
0.014899 
0.017136 
0.015566 
0.012506 
0.013692 
0.017804 
0.020058 
0.019499 
0.014513 
0.009454 
0.004790 
0.000000 
0.005062 
0.012424 
0.019270 
0.022885 
0.023320 
0.022174 
0.006411 
0.006037 
0.006975 
0.013371 
0.020613 
0.021115 
0.015927 
0.014036 
0.015368 
0.015779 
0.018957 
0.023529 
0.024656 
0.017579 
0.011533 
0.009432 
0.009272 
0.008720 
0.007098 
0.003304 
0.000000 
0.006688 
0.014176 
0.019519 
0.019376 
0.017586 
0.015061 
0.013001 
0.013185 
0.012469 
0.011642 
0.014120 
0.016448 
0.014121 
0.011313 
0.008993 
0.005575 
0.005494 
0.010555 
0.016370 
0.018795 
0.018411 
0.017603 
0.015755 
0.014302 
0.013822 
0.012368 
0.012581 
0.014030 
0.013476 
0.013734 
0.014653 
0.013644 
0.009930 
0.008098 
0.008249 
0.008059 
0.005524 
0.004415 
0.006979 
0.012207 
0.015715 
0.014369 
0.010880 
0.011460 
0.015477 
0.018223 
0.023036 
0.026486 
0.026624 
0.023611 
0.022354 
0.018565 
0.015426 
0.012246 
0.009947 
0.011762 
0.015251 
0.014162 
0.010774 
0.010331 
0.012043 
0.013897 
0.016316 
0.014269 
0.010332 
0.010204 
0.012854 
0.013106 
0.011138 
0.005964 
0.000000 
0.000000 
0.000000 
0.000000 
0.008589 
0.016047 
0.020554 
0.021209 
0.019338 
0.012997 
0.012315 
0.012121 
0.015352 
0.020291 
0.020466 
0.016591 
0.016160 
0.017781 
0.018082 
0.020554 
0.024461 
0.025921 
0.021032 
0.016565 
0.013130 
0.010561 
0.008806 
0.005628 
0.000000 
0.000000 
0.006563 
0.013559 
0.019712 
0.021188 
0.019826 
0.016538 
0.014152 
0.015167 
0.015283 
0.013423 
0.014055 
0.015170 
0.014670 
0.014963 
0.014190 
0.010127 
0.009282 
0.014034 
0.020254 
0.023373 
0.022569 
0.020822 
0.019160 
0.018960 
0.017798 
0.013834 
0.012619 
0.014368 
0.014753 
0.017009 
0.019257 
0.017832 
0.012726 
0.009367 
0.007437 
0.006027 
0.002892 
0.000000 
0.000000 
0.005503 
0.009638 
0.010085 
0.008023 
0.008393 
0.011269 
0.013427 
0.017069 
0.019641 
0.020496 
0.019314 
0.018654 
0.014795 
0.012765 
0.012344 
0.010565 
0.010958 
0.012628 
0.011752 
0.008488 
0.007256 
0.008302 
0.010196 
0.012829 
0.011907 
0.008577 
0.008017 
0.010005 
0.009969 
0.007308 
0.000000 
0.000000 
0.000000 
0.000000 
0.000000 
0.007544 
0.014323 
0.017281 
0.016885 
0.014261 
0.016464 
0.016868 
0.017081 
0.016783 
0.016793 
0.015746 
0.013855 
0.014832 
0.016432 
0.017304 
0.018400 
0.021249 
0.024582 
0.024678 
0.023385 
0.018898 
0.014210 
0.011617 
0.007917 
0.005377 
0.006202 
0.008996 
0.013416 
0.017791 
0.020659 
0.022065 
0.018809 
0.014981 
0.015316 
0.016519 
0.015354 
0.016246 
0.017381 
0.017596 
0.017868 
0.016057 
0.011252 
0.010367 
0.014831 
0.019766 
0.021776 
0.021178 
0.021751 
0.023257 
0.024203 
0.021513 
0.016181 
0.014325 
0.015559 
0.014688 
0.016441 
0.019954 
0.019863 
0.014875 
0.010958 
0.007616 
0.004925 
0.000000 
0.000000 
0.000000 
0.000000 
0.005841 
0.007889 
0.007039 
0.007547 
0.009420 
0.009970 
0.011874 
0.014325 
0.016184 
0.016068 
0.015335 
0.012250 
0.011923 
0.013839 
0.012972 
0.012428 
0.010999 
0.008876 
0.006543 
0.005884 
0.006433 
0.008675 
0.012170 
0.012197 
0.009144 
0.008870 
0.011983 
0.013488 
0.011500 
0.007913 
0.006748 
0.004617 
0.000000 
0.000000 
0.007557 
0.013236 
0.015048 
0.014254 
0.011682 
0.016484 
0.018940 
0.022197 
0.019976 
0.015876 
0.013416 
0.011577 
0.012505 
0.015181 
0.018257 
0.018353 
0.019332 
0.023229 
0.026884 
0.027099 
0.021245 
0.015883 
0.013646 
0.010251 
0.009022 
0.010877 
0.012873 
0.015646 
0.017842 
0.019992 
0.022298 
0.018856 
0.015295 
0.016489 
0.019232 
0.017777 
0.018459 
0.019921 
0.018931 
0.016171 
0.012177 
0.007140 
0.006288 
0.008886 
0.011503 
0.012698 
0.014519 
0.019213 
0.024652 
0.025538 
0.021687 
0.017308 
0.015655 
0.015667 
0.013214 
0.014062 
0.018179 
0.018715 
0.013717 
0.009978 
0.007902 
0.006784 
0.003532 
0.000000 
0.000000 
0.003341 
0.006805 
0.009241 
0.008975 
0.010051 
0.011429 
0.009871 
0.009989 
0.012319 
0.014450 
0.015582 
0.015210 
0.013025 
0.014748 
0.019332 
0.019392 
0.018582 
0.013863 
0.009346 
0.007842 
0.008598 
0.008483 
0.010295 
0.013907 
0.013392 
0.010327 
0.011209 
0.016839 
0.020571 
0.018495 
0.015136 
0.014462 
0.012177 
0.008683 
0.007950 
0.011134 
0.014873 
0.015341 
0.013566 
0.011570 
0.014976 
0.018318 
0.022951 
0.019503 
0.014697 
0.013106 
0.011488 
0.011387 
0.014051 
0.019045 
0.020888 
0.021064 
0.022941 
0.025497 
0.025309 
0.020750 
0.017569 
0.016511 
0.013103 
0.011033 
0.011792 
0.013348 
0.014874 
0.016082 
0.016842 
0.018475 
0.016646 
0.015966 
0.018332 
0.021064 
0.018733 
0.018283 
0.018243 
0.015423 
0.011457 
0.006840 
0.000000 
0.000000 
0.000000 
0.000000 
0.000000 
0.006253 
0.013494 
0.020040 
0.020591 
0.018341 
0.016804 
0.015284 
0.012923 
0.009417 
0.008928 
0.011627 
0.012386 
0.009384 
0.007848 
0.008705 
0.010015 
0.007731 
0.005370 
0.005149 
0.006891 
0.008183 
0.009654 
0.010179 
0.012211 
0.012924 
0.010245 
0.009615 
0.011554 
0.012922 
0.014308 
0.014217 
0.013904 
0.017455 
0.023457 
0.023787 
0.023138 
0.017662 
0.012230 
0.011679 
0.013750 
0.012536 
0.012585 
0.015295 
0.014494 
0.011132 
0.010830 
0.015497 
0.019629 
0.018268 
0.016925 
0.018270 
0.017816 
0.015826 
0.014764 
0.015111 