# vtk DataFile Version 3.0
results.vtk
ASCII
DATASET RECTILINEAR_GRID
DIMENSIONS 100 100 1
X_COORDINATES 100 double
0.000000 0.010000 0.020000 0.030000 0.040000 0.050000 0.060000 0.070000 0.080000 0.090000 0.100000 0.110000 0.120000 0.130000 0.140000 0.150000 0.160000 0.170000 0.180000 0.190000 0.200000 0.210000 0.220000 0.230000 0.240000 0.250000 0.260000 0.270000 0.280000 0.290000 0.300000 0.310000 0.320000 0.330000 0.340000 0.350000 0.360000 0.370000 0.380000 0.390000 0.400000 0.410000 0.420000 0.430000 0.440000 0.450000 0.460000 0.470000 0.480000 0.490000 0.500000 0.510000 0.520000 0.530000 0.540000 0.550000 0.560000 0.570000 0.580000 0.590000 0.600000 0.610000 0.620000 0.630000 0.640000 0.650000 0.660000 0.670000 0.680000 0.690000 0.700000 0.710000 0.720000 0.730000 0.740000 0.750000 0.760000 0.770000 0.780000 0.790000 0.800000 0.810000 0.820000 0.830000 0.840000 0.850000 0.860000 0.870000 0.880000 0.890000 0.900000 0.910000 0.920000 0.930000 0.940000 0.950000 0.960000 0.970000 0.980000 0.990000 
Y_COORDINATES 100 double
0.000000 0.010000 0.020000 0.030000 0.040000 0.050000 0.060000 0.070000 0.080000 0.090000 0.100000 0.110000 0.120000 0.130000 0.140000 0.150000 0.160000 0.170000 0.180000 0.190000 0.200000 0.210000 0.220000 0.230000 0.240000 0.250000 0.260000 0.270000 0.280000 0.290000 0.300000 0.310000 0.320000 0.330000 0.340000 0.350000 0.360000 0.370000 0.380000 0.390000 0.400000 0.410000 0.420000 0.430000 0.440000 0.450000 0.460000 0.470000 0.480000 0.490000 0.500000 0.510000 0.520000 0.530000 0.540000 0.550000 0.560000 0.570000 0.580000 0.590000 0.600000 0.610000 0.620000 0.630000 0.640000 0.650000 0.660000 0.670000 0.680000 0.690000 0.700000 0.710000 0.720000 0.730000 0.740000 0.750000 0.760000 0.770000 0.780000 0.790000 0.800000 0.810000 0.820000 0.830000 0.840000 0.850000 0.860000 0.870000 0.880000 0.890000 0.900000 0.910000 0.920000 0.930000 0.940000 0.950000 0.960000 0.970000 0.980000 0.990000 
Z_COORDINATES 1 double
0
POINT_DATA 10000 
FIELD FieldData 1 
Concentração 1 10000 double 
0.042209 
0.043218 
0.037344 
0.031604 
0.032025 
0.027811 
0.028981 
0.029140 
0.024262 
0.019471 
0.023529 
0.029988 
0.026753 
0.022322 
0.027221 
0.034082 
0.034824 
0.030005 
0.027818 
0.028218 
0.031681 
0.037459 
0.034380 
0.030642 
0.030667 
0.027360 
0.019144 
0.016652 
0.019324 
0.017929 
0.018637 
0.026032 
0.029836 
0.025621 
0.017366 
0.017013 
0.022143 
0.020119 
0.013625 
0.013184 
0.018474 
0.023070 
0.026981 
0.023523 
0.011489 
0.000000 
0.006068 
0.015247 
0.026153 
0.036571 
0.042153 
0.032975 
0.021141 
0.009167 
0.000000 
0.000000 
0.000000 
0.019350 
0.038750 
0.045957 
0.039005 
0.035114 
0.028392 
0.027469 
0.024741 
0.018590 
0.018635 
0.023145 
0.021188 
0.019577 
0.013728 
0.009930 
0.007591 
0.008248 
0.009778 
0.013563 
0.013686 
0.007018 
0.000000 
0.000000 
0.007783 
0.013795 
0.022306 
0.028391 
0.034749 
0.035465 
0.026089 
0.020745 
0.017658 
0.021027 
0.028466 
0.030209 
0.018596 
0.009908 
0.009401 
0.016249 
0.023892 
0.017594 
0.009683 
0.000000 
0.040827 
0.041201 
0.035698 
0.029966 
0.028951 
0.025155 
0.026732 
0.026605 
0.022020 
0.020049 
0.026544 
0.031996 
0.025015 
0.018658 
0.022698 
0.031034 
0.034181 
0.029856 
0.024714 
0.023975 
0.028235 
0.033163 
0.031395 
0.030998 
0.031276 
0.027853 
0.020956 
0.019102 
0.021692 
0.020221 
0.019751 
0.026100 
0.029756 
0.025890 
0.018192 
0.018027 
0.021699 
0.017824 
0.011966 
0.012074 
0.017056 
0.023154 
0.027676 
0.024462 
0.012183 
0.000000 
0.006461 
0.014260 
0.021740 
0.031117 
0.038963 
0.032125 
0.019640 
0.008260 
0.000000 
0.000000 
0.007171 
0.023132 
0.041814 
0.046543 
0.037693 
0.032133 
0.026326 
0.026638 
0.025377 
0.021105 
0.022043 
0.026311 
0.023414 
0.021565 
0.016167 
0.013269 
0.010954 
0.011651 
0.012659 
0.015318 
0.012773 
0.005945 
0.000000 
0.004260 
0.010426 
0.015674 
0.024214 
0.030411 
0.033987 
0.032010 
0.023074 
0.019256 
0.018262 
0.020915 
0.024731 
0.025540 
0.016791 
0.010816 
0.010474 
0.015370 
0.021553 
0.017044 
0.011856 
0.006494 
0.034956 
0.033824 
0.028947 
0.025103 
0.020960 
0.016059 
0.016325 
0.017499 
0.018267 
0.022776 
0.032072 
0.034635 
0.022933 
0.014925 
0.019182 
0.030972 
0.038693 
0.034884 
0.024391 
0.020335 
0.023583 
0.026420 
0.027981 
0.032583 
0.031480 
0.029728 
0.026715 
0.024264 
0.023402 
0.020564 
0.016694 
0.018720 
0.021685 
0.020554 
0.017308 
0.019486 
0.020782 
0.015357 
0.011749 
0.013252 
0.016233 
0.021032 
0.023332 
0.021245 
0.012099 
0.006027 
0.008418 
0.013676 
0.016256 
0.023373 
0.033698 
0.032155 
0.020095 
0.009164 
0.000000 
0.000000 
0.010740 
0.027716 
0.043887 
0.043966 
0.033255 
0.024340 
0.018902 
0.019099 
0.021404 
0.024249 
0.026987 
0.028081 
0.023158 
0.021396 
0.018554 
0.018474 
0.016332 
0.017209 
0.018339 
0.020612 
0.014104 
0.005798 
0.000000 
0.006461 
0.012676 
0.015634 
0.022701 
0.029266 
0.027472 
0.022757 
0.018941 
0.021790 
0.024914 
0.024577 
0.020362 
0.017932 
0.014949 
0.015102 
0.014864 
0.014688 
0.016928 
0.015088 
0.013734 
0.009822 
0.027352 
0.027216 
0.025665 
0.025774 
0.019254 
0.011636 
0.010149 
0.014067 
0.021276 
0.029077 
0.035094 
0.033060 
0.019820 
0.011982 
0.015093 
0.025010 
0.033960 
0.032662 
0.022959 
0.017602 
0.018894 
0.022375 
0.026809 
0.033070 
0.029111 
0.028604 
0.031597 
0.029428 
0.023887 
0.016881 
0.011672 
0.013641 
0.019315 
0.021557 
0.020777 
0.024218 
0.023345 
0.016908 
0.015034 
0.016245 
0.014747 
0.015493 
0.017840 
0.019436 
0.013104 
0.008401 
0.007686 
0.008875 
0.008540 
0.014459 
0.024329 
0.027496 
0.020851 
0.013472 
0.005387 
0.000000 
0.012017 
0.028432 
0.040073 
0.036816 
0.028900 
0.020505 
0.016377 
0.015732 
0.020752 
0.029686 
0.031778 
0.027226 
0.020935 
0.019954 
0.018299 
0.018348 
0.014962 
0.014334 
0.016553 
0.020327 
0.014636 
0.006855 
0.000000 
0.005450 
0.009176 
0.011184 
0.017823 
0.025327 
0.022644 
0.018721 
0.020283 
0.029268 
0.034213 
0.028791 
0.019124 
0.015935 
0.017984 
0.022560 
0.021708 
0.017815 
0.016983 
0.013307 
0.011050 
0.008146 
0.017973 
0.018665 
0.020933 
0.025558 
0.021734 
0.013431 
0.011495 
0.018967 
0.031687 
0.040731 
0.040297 
0.031685 
0.017886 
0.011689 
0.014109 
0.018449 
0.023086 
0.024963 
0.022615 
0.019807 
0.019622 
0.023592 
0.028253 
0.032844 
0.026015 
0.023582 
0.026944 
0.025161 
0.020419 
0.012756 
0.008140 
0.013379 
0.023011 
0.027267 
0.023949 
0.024091 
0.021558 
0.017615 
0.018514 
0.017792 
0.013558 
0.011735 
0.014836 
0.019226 
0.015910 
0.013240 
0.010049 
0.006582 
0.000000 
0.009329 
0.017836 
0.022158 
0.022526 
0.019399 
0.009589 
0.000000 
0.007730 
0.019622 
0.027988 
0.025938 
0.022971 
0.018543 
0.017305 
0.015986 
0.019675 
0.029008 
0.031624 
0.026518 
0.018642 
0.016285 
0.016721 
0.017868 
0.013702 
0.010458 
0.011917 
0.016679 
0.015728 
0.011587 
0.009019 
0.007738 
0.007727 
0.008380 
0.014257 
0.022914 
0.023970 
0.022255 
0.024292 
0.032823 
0.037192 
0.030519 
0.021073 
0.020008 
0.023202 
0.025340 
0.022086 
0.019743 
0.020959 
0.015527 
0.011651 
0.009596 
0.016479 
0.016322 
0.018337 
0.023951 
0.025484 
0.018889 
0.017162 
0.026103 
0.038461 
0.045974 
0.042002 
0.031573 
0.018463 
0.014138 
0.017383 
0.018862 
0.019887 
0.024336 
0.027364 
0.025550 
0.022737 
0.024587 
0.029010 
0.031910 
0.024476 
0.018753 
0.017159 
0.014583 
0.011737 
0.006828 
0.000000 
0.010438 
0.019393 
0.024531 
0.022546 
0.023476 
0.022502 
0.022097 
0.026683 
0.025033 
0.018777 
0.014611 
0.018255 
0.024319 
0.022525 
0.022066 
0.018261 
0.012598 
0.008719 
0.011006 
0.016644 
0.019995 
0.023999 
0.022830 
0.012125 
0.000000 
0.000000 
0.008034 
0.013294 
0.015523 
0.017529 
0.015418 
0.015083 
0.015044 
0.016439 
0.023809 
0.030457 
0.030021 
0.021441 
0.016159 
0.016321 
0.016503 
0.013716 
0.009912 
0.011325 
0.017635 
0.020211 
0.018231 
0.016184 
0.012546 
0.011264 
0.010556 
0.015517 
0.025466 
0.030384 
0.030442 
0.031521 
0.035777 
0.035127 
0.026698 
0.021038 
0.025165 
0.030509 
0.029960 
0.023077 
0.019925 
0.021718 
0.018095 
0.017295 
0.017762 
0.023518 
0.022721 
0.022520 
0.024619 
0.027107 
0.023808 
0.024225 
0.034636 
0.043623 
0.046373 
0.040380 
0.029879 
0.017880 
0.014025 
0.016506 
0.018793 
0.019479 
0.024378 
0.027489 
0.026582 
0.027116 
0.029150 
0.032316 
0.034351 
0.030064 
0.022905 
0.015345 
0.010600 
0.008297 
0.007284 
0.007050 
0.011113 
0.013670 
0.015477 
0.015069 
0.017862 
0.020676 
0.023101 
0.030254 
0.031054 
0.024993 
0.019203 
0.021752 
0.025919 
0.024732 
0.026941 
0.026304 
0.021731 
0.015988 
0.011668 
0.011790 
0.014149 
0.021043 
0.024869 
0.016459 
0.006196 
0.000000 
0.000000 
0.000000 
0.005994 
0.010658 
0.011924 
0.013158 
0.014869 
0.014325 
0.018058 
0.024393 
0.028817 
0.025017 
0.019653 
0.018730 
0.016896 
0.014957 
0.010832 
0.011938 
0.017966 
0.020551 
0.020169 
0.016949 
0.014210 
0.015058 
0.014224 
0.016501 
0.023121 
0.027938 
0.029651 
0.033978 
0.037875 
0.035685 
0.025013 
0.018466 
0.022465 
0.030106 
0.031605 
0.025241 
0.019854 
0.019028 
0.018267 
0.022284 
0.025551 
0.026968 
0.028221 
0.028588 
0.026318 
0.024662 
0.023356 
0.024673 
0.034146 
0.040611 
0.039979 
0.034645 
0.028002 
0.018851 
0.014960 
0.013111 
0.013003 
0.013837 
0.019022 
0.024616 
0.028104 
0.034575 
0.035590 
0.035561 
0.040811 
0.042925 
0.035401 
0.022613 
0.015601 
0.013009 
0.014109 
0.013938 
0.014924 
0.012873 
0.011656 
0.010496 
0.010914 
0.012868 
0.015965 
0.022967 
0.025463 
0.020987 
0.017207 
0.019708 
0.021612 
0.023158 
0.028208 
0.029799 
0.028431 
0.021894 
0.012234 
0.006963 
0.008014 
0.016485 
0.024494 
0.021171 
0.012275 
0.006001 
0.000000 
0.000000 
0.000000 
0.008102 
0.012759 
0.012520 
0.012710 
0.013531 
0.016900 
0.019434 
0.024641 
0.027288 
0.022433 
0.017842 
0.013084 
0.010074 
0.006535 
0.008588 
0.013838 
0.018515 
0.021873 
0.016956 
0.013123 
0.015006 
0.018148 
0.021386 
0.024930 
0.026564 
0.026531 
0.032295 
0.037620 
0.036212 
0.026913 
0.019644 
0.022283 
0.032465 
0.037265 
0.032077 
0.025021 
0.020046 
0.015931 
0.016420 
0.017514 
0.021418 
0.024267 
0.027050 
0.024204 
0.018567 
0.016092 
0.017939 
0.028200 
0.038352 
0.037957 
0.032876 
0.027595 
0.021014 
0.018375 
0.012943 
0.009886 
0.009875 
0.013029 
0.018806 
0.025552 
0.035276 
0.035254 
0.033928 
0.042227 
0.048160 
0.040611 
0.027922 
0.022000 
0.020671 
0.023514 
0.020320 
0.017220 
0.015327 
0.015502 
0.013715 
0.009986 
0.008980 
0.012440 
0.019573 
0.021962 
0.016887 
0.012144 
0.012776 
0.015708 
0.021657 
0.027961 
0.029755 
0.028135 
0.020402 
0.009499 
0.000000 
0.000000 
0.012255 
0.022233 
0.026130 
0.021149 
0.015935 
0.008406 
0.000000 
0.000000 
0.010575 
0.018735 
0.016637 
0.014664 
0.018091 
0.022344 
0.019523 
0.021598 
0.027966 
0.027014 
0.021158 
0.013307 
0.007127 
0.000000 
0.007812 
0.012347 
0.016425 
0.020800 
0.016969 
0.013487 
0.015668 
0.022211 
0.026732 
0.027198 
0.024473 
0.022701 
0.028264 
0.033186 
0.033386 
0.029549 
0.023723 
0.023087 
0.030260 
0.033914 
0.030076 
0.026868 
0.023026 
0.016949 
0.012777 
0.010242 
0.019151 
0.021914 
0.023400 
0.018462 
0.012414 
0.010410 
0.012326 
0.021895 
0.033432 
0.033756 
0.031980 
0.028817 
0.023021 
0.020859 
0.015112 
0.012677 
0.012894 
0.013645 
0.017454 
0.022344 
0.030822 
0.032106 
0.032639 
0.042424 
0.046512 
0.036963 
0.026561 
0.021404 
0.022442 
0.028733 
0.027480 
0.023412 
0.022489 
0.023401 
0.020751 
0.013988 
0.010364 
0.013253 
0.018641 
0.018908 
0.014800 
0.009106 
0.007504 
0.012806 
0.022790 
0.030268 
0.032561 
0.030636 
0.021887 
0.010180 
0.000000 
0.005276 
0.013361 
0.020936 
0.028270 
0.029693 
0.028188 
0.018809 
0.007282 
0.000000 
0.010981 
0.021207 
0.021513 
0.020343 
0.025402 
0.027385 
0.019830 
0.018876 
0.027295 
0.032927 
0.028999 
0.019710 
0.011778 
0.010650 
0.016856 
0.018739 
0.016933 
0.018067 
0.017920 
0.016006 
0.014668 
0.017465 
0.020934 
0.022014 
0.021157 
0.018569 
0.022588 
0.029345 
0.032641 
0.031756 
0.027671 
0.024945 
0.026750 
0.025021 
0.020117 
0.019167 
0.020088 
0.019903 
0.016034 
0.010783 
0.019068 
0.020229 
0.018149 
0.013016 
0.010482 
0.010470 
0.010440 
0.015991 
0.024817 
0.025327 
0.025667 
0.025697 
0.023746 
0.025011 
0.021158 
0.020866 
0.020605 
0.019020 
0.019683 
0.018167 
0.020485 
0.022291 
0.025624 
0.035889 
0.039804 
0.033011 
0.027029 
0.022277 
0.023984 
0.032794 
0.037297 
0.033774 
0.028199 
0.023693 
0.020751 
0.016581 
0.013099 
0.014289 
0.015306 
0.014576 
0.013252 
0.007126 
0.000000 
0.006506 
0.015895 
0.022172 
0.025421 
0.027269 
0.022683 
0.013369 
0.007117 
0.009629 
0.016166 
0.019461 
0.024422 
0.029976 
0.031825 
0.023357 
0.010054 
0.000000 
0.007311 
0.018292 
0.025195 
0.028407 
0.035102 
0.032835 
0.021334 
0.018876 
0.027488 
0.033958 
0.031283 
0.024436 
0.017954 
0.020951 
0.031709 
0.031831 
0.023010 
0.019213 
0.021154 
0.020850 
0.017125 
0.016065 
0.019210 
0.021773 
0.023782 
0.018494 
0.018777 
0.026121 
0.033193 
0.032210 
0.027467 
0.025459 
0.024159 
0.020307 
0.015113 
0.015577 
0.020853 
0.026820 
0.023408 
0.015259 
0.017665 
0.017414 
0.015773 
0.013034 
0.014818 
0.014307 
0.009898 
0.009430 
0.016660 
0.021686 
0.023899 
0.024025 
0.022065 
0.024280 
0.023646 
0.025837 
0.023720 
0.022147 
0.020687 
0.015448 
0.014872 
0.016787 
0.018958 
0.025882 
0.031037 
0.030164 
0.028662 
0.026609 
0.029022 
0.037737 
0.045906 
0.042817 
0.029687 
0.021371 
0.021046 
0.020388 
0.016948 
0.016505 
0.012755 
0.008242 
0.007093 
0.003707 
0.000000 
0.000000 
0.013744 
0.018298 
0.019607 
0.022125 
0.019836 
0.014558 
0.009833 
0.011835 
0.017662 
0.018052 
0.017392 
0.020567 
0.023331 
0.017030 
0.006283 
0.000000 
0.000000 
0.015239 
0.028983 
0.037059 
0.045792 
0.042942 
0.027416 
0.023328 
0.031269 
0.035970 
0.034459 
0.029027 
0.024520 
0.028421 
0.040957 
0.038732 
0.027328 
0.018757 
0.017901 
0.020476 
0.021972 
0.021050 
0.024872 
0.026296 
0.028317 
0.021179 
0.020356 
0.025362 
0.029677 
0.026963 
0.025161 
0.028745 
0.027661 
0.022938 
0.017825 
0.019765 
0.025022 
0.029206 
0.024410 
0.015061 
0.030366 
0.028205 
0.027923 
0.024326 
0.028287 
0.018324 
0.007663 
0.000000 
0.017676 
0.032040 
0.028280 
0.020281 
0.013252 
0.014011 
0.017288 
0.023106 
0.025525 
0.032066 
0.029333 
0.020057 
0.019638 
0.021493 
0.022601 
0.026370 
0.030130 
0.032022 
0.031891 
0.030814 
0.031684 
0.038002 
0.051979 
0.051267 
0.030966 
0.020591 
0.021926 
0.021590 
0.017128 
0.017401 
0.012852 
0.000000 
0.000000 
0.000000 
0.000000 
0.015540 
0.026961 
0.023249 
0.016706 
0.015903 
0.015827 
0.015495 
0.014025 
0.020441 
0.028688 
0.023869 
0.016449 
0.018247 
0.025420 
0.017601 
0.000000 
0.000000 
0.000000 
0.020164 
0.043866 
0.054223 
0.059847 
0.057743 
0.035764 
0.029631 
0.038524 
0.050241 
0.055224 
0.051370 
0.045278 
0.039930 
0.048463 
0.040502 
0.032162 
0.023233 
0.019410 
0.027464 
0.036899 
0.033077 
0.037181 
0.037886 
0.040778 
0.031906 
0.035396 
0.037101 
0.031630 
0.024468 
0.021774 
0.027046 
0.026819 
0.022459 
0.022267 
0.031849 
0.038715 
0.036824 
0.031129 
0.018329 
0.067726 
0.062460 
0.061158 
0.052078 
0.064021 
0.031851 
0.010639 
0.011364 
0.036325 
0.065542 
0.041673 
0.020426 
0.000000 
0.000000 
0.007882 
0.016312 
0.029352 
0.054448 
0.050707 
0.034391 
0.039539 
0.039720 
0.044125 
0.044955 
0.034072 
0.029990 
0.025604 
0.024729 
0.028805 
0.040036 
0.070695 
0.071993 
0.037253 
0.024256 
0.028840 
0.033030 
0.027409 
0.035011 
0.033438 
0.021448 
0.020385 
0.027868 
0.029808 
0.045966 
0.057122 
0.033286 
0.016367 
0.015274 
0.016303 
0.016225 
0.020990 
0.042052 
0.054837 
0.036401 
0.020189 
0.026241 
0.048893 
0.039272 
0.015151 
0.000000 
0.008652 
0.030404 
0.070885 
0.085957 
0.089298 
0.091247 
0.052809 
0.044659 
0.054017 
0.079888 
0.094724 
0.096842 
0.090596 
0.063714 
0.069027 
0.050484 
0.050035 
0.045339 
0.035128 
0.051400 
0.069331 
0.058203 
0.069870 
0.076514 
0.083099 
0.060990 
0.073572 
0.074259 
0.057779 
0.040367 
0.022539 
0.020323 
0.020759 
0.022786 
0.033873 
0.061051 
0.076693 
0.067938 
0.057584 
0.030912 
0.067326 
0.070058 
0.054518 
0.051894 
0.067940 
0.032700 
0.012570 
0.021001 
0.054696 
0.077213 
0.047852 
0.033868 
0.012619 
0.000000 
0.000000 
0.000000 
0.015194 
0.042425 
0.062391 
0.057630 
0.081638 
0.081547 
0.089497 
0.089549 
0.053139 
0.039589 
0.022477 
0.019510 
0.027973 
0.027629 
0.041438 
0.042586 
0.029965 
0.038687 
0.051318 
0.059603 
0.052156 
0.067959 
0.071158 
0.058349 
0.058424 
0.071582 
0.070116 
0.073175 
0.061086 
0.029682 
0.020105 
0.032522 
0.035472 
0.022918 
0.028829 
0.055175 
0.051093 
0.040126 
0.024047 
0.021939 
0.042054 
0.054179 
0.032600 
0.025791 
0.018080 
0.019770 
0.039821 
0.059329 
0.084141 
0.088007 
0.057545 
0.060718 
0.056791 
0.054670 
0.055956 
0.066417 
0.076410 
0.053823 
0.059068 
0.056316 
0.080693 
0.090645 
0.065009 
0.071791 
0.073973 
0.062219 
0.070159 
0.098446 
0.093944 
0.059982 
0.063797 
0.066771 
0.078877 
0.068415 
0.030657 
0.015221 
0.020033 
0.039682 
0.063826 
0.096205 
0.096958 
0.081677 
0.050684 
0.027596 
0.054005 
0.059142 
0.046168 
0.055647 
0.060366 
0.028143 
0.015560 
0.035758 
0.080114 
0.081487 
0.058344 
0.063458 
0.030845 
0.015609 
0.018439 
0.008370 
0.000000 
0.024797 
0.050905 
0.059736 
0.095604 
0.107349 
0.098191 
0.104850 
0.075382 
0.070958 
0.036832 
0.028948 
0.043620 
0.034315 
0.042024 
0.043585 
0.040077 
0.063514 
0.070038 
0.057754 
0.052493 
0.052441 
0.063122 
0.080984 
0.087297 
0.092258 
0.095154 
0.073832 
0.061460 
0.032249 
0.033302 
0.066146 
0.074982 
0.038141 
0.028501 
0.046776 
0.047367 
0.061473 
0.047978 
0.027491 
0.033296 
0.047533 
0.040207 
0.051421 
0.039829 
0.021643 
0.022771 
0.031473 
0.044291 
0.042591 
0.031437 
0.044566 
0.060288 
0.051273 
0.038238 
0.043311 
0.043383 
0.042282 
0.066496 
0.065754 
0.079767 
0.101956 
0.074975 
0.066740 
0.081329 
0.075185 
0.064986 
0.085239 
0.069619 
0.054420 
0.067416 
0.060340 
0.069951 
0.064050 
0.029477 
0.016602 
0.032370 
0.068092 
0.092793 
0.113925 
0.113364 
0.081731 
0.046397 
0.040219 
0.083983 
0.089343 
0.073694 
0.100594 
0.093651 
0.042245 
0.022766 
0.044060 
0.090648 
0.096955 
0.065846 
0.066529 
0.034346 
0.025648 
0.037852 
0.018816 
0.009413 
0.026571 
0.057491 
0.060114 
0.073062 
0.097695 
0.095696 
0.101599 
0.086218 
0.077663 
0.037840 
0.024296 
0.030081 
0.036157 
0.063350 
0.067114 
0.042350 
0.042809 
0.044794 
0.051994 
0.072058 
0.056024 
0.057720 
0.067088 
0.069380 
0.088663 
0.092074 
0.056212 
0.035910 
0.020196 
0.025577 
0.050255 
0.067759 
0.037176 
0.030370 
0.050108 
0.047444 
0.070606 
0.078484 
0.048849 
0.050053 
0.056688 
0.038190 
0.045485 
0.055006 
0.036245 
0.039121 
0.045820 
0.047632 
0.032125 
0.020613 
0.024149 
0.042404 
0.055949 
0.046919 
0.050316 
0.033281 
0.035822 
0.069222 
0.082471 
0.087826 
0.100510 
0.080687 
0.054800 
0.058163 
0.048193 
0.045225 
0.064867 
0.064471 
0.067041 
0.078859 
0.080333 
0.094586 
0.094209 
0.048185 
0.026523 
0.036057 
0.046440 
0.052505 
0.070567 
0.096610 
0.088111 
0.063882 
0.075184 
0.106416 
0.102110 
0.084269 
0.117196 
0.100816 
0.050149 
0.033539 
0.049460 
0.069156 
0.077516 
0.047294 
0.037914 
0.018677 
0.012062 
0.017743 
0.008270 
0.000000 
0.021891 
0.047637 
0.059752 
0.056282 
0.082203 
0.098205 
0.088750 
0.089954 
0.062990 
0.033293 
0.031173 
0.027696 
0.028813 
0.045202 
0.058222 
0.042807 
0.041626 
0.041712 
0.058817 
0.082233 
0.074322 
0.078495 
0.072576 
0.050052 
0.056623 
0.066153 
0.049236 
0.030936 
0.024768 
0.031730 
0.035194 
0.039597 
0.024000 
0.017685 
0.028416 
0.038637 
0.073886 
0.085633 
0.061758 
0.062575 
0.043527 
0.022747 
0.027846 
0.046251 
0.045098 
0.070348 
0.089940 
0.096821 
0.065697 
0.039621 
0.021286 
0.022553 
0.034739 
0.038354 
0.032587 
0.023179 
0.041400 
0.085950 
0.087555 
0.092380 
0.070357 
0.052529 
0.044819 
0.056438 
0.045254 
0.057552 
0.086522 
0.101818 
0.122156 
0.134439 
0.123979 
0.104969 
0.110302 
0.073855 
0.049841 
0.057186 
0.047088 
0.029454 
0.032564 
0.055750 
0.067990 
0.064630 
0.072890 
0.081800 
0.077229 
0.071523 
0.104898 
0.079952 
0.059561 
0.064065 
0.082694 
0.067291 
0.049548 
0.035221 
0.034730 
0.019256 
0.000000 
0.000000 
0.000000 
0.013607 
0.035219 
0.047824 
0.042362 
0.043125 
0.075988 
0.088402 
0.070706 
0.079997 
0.060251 
0.044510 
0.062240 
0.060156 
0.052545 
0.055182 
0.084625 
0.078156 
0.076096 
0.070206 
0.071848 
0.067714 
0.068941 
0.058593 
0.046538 
0.036157 
0.054782 
0.076588 
0.074421 
0.058891 
0.056805 
0.065062 
0.058871 
0.054311 
0.038539 
0.019315 
0.016491 
0.019186 
0.037859 
0.052354 
0.054399 
0.052784 
0.027484 
0.014171 
0.025392 
0.049666 
0.042802 
0.051868 
0.074421 
0.111604 
0.100547 
0.072222 
0.037575 
0.026498 
0.035180 
0.046434 
0.028159 
0.022404 
0.049451 
0.097209 
0.091980 
0.088430 
0.055873 
0.048756 
0.046931 
0.046609 
0.045360 
0.066359 
0.076053 
0.082070 
0.120046 
0.151588 
0.143557 
0.113722 
0.121173 
0.108337 
0.075165 
0.058227 
0.053112 
0.028974 
0.029649 
0.059473 
0.083483 
0.090392 
0.093928 
0.087844 
0.080262 
0.069588 
0.098100 
0.078488 
0.084622 
0.093468 
0.099603 
0.078357 
0.050974 
0.057114 
0.068168 
0.049051 
0.019880 
0.013727 
0.024364 
0.035537 
0.068412 
0.078540 
0.041254 
0.023732 
0.034708 
0.041016 
0.037512 
0.050329 
0.058710 
0.050986 
0.080078 
0.108276 
0.099866 
0.075578 
0.102589 
0.107238 
0.089350 
0.085996 
0.056187 
0.035662 
0.039886 
0.046903 
0.045717 
0.042161 
0.057222 
0.054946 
0.058604 
0.074919 
0.081780 
0.078668 
0.093371 
0.102239 
0.078412 
0.038982 
0.027673 
0.017583 
0.026322 
0.053340 
0.075175 
0.066388 
0.028782 
0.012367 
0.019724 
0.037653 
0.047707 
0.049171 
0.055436 
0.087826 
0.081388 
0.060814 
0.055108 
0.053885 
0.050068 
0.036883 
0.022245 
0.030050 
0.063125 
0.097143 
0.092736 
0.076499 
0.056072 
0.072926 
0.076405 
0.065097 
0.053520 
0.055122 
0.063443 
0.053928 
0.081073 
0.130938 
0.136283 
0.118693 
0.115540 
0.117208 
0.099832 
0.052786 
0.032662 
0.022861 
0.041995 
0.079657 
0.069991 
0.057005 
0.050224 
0.040902 
0.039987 
0.046230 
0.079616 
0.072652 
0.068413 
0.055291 
0.049120 
0.043345 
0.048070 
0.085213 
0.094952 
0.087505 
0.041480 
0.028645 
0.044601 
0.040417 
0.055481 
0.071141 
0.033856 
0.011610 
0.014150 
0.024332 
0.031788 
0.030665 
0.039239 
0.049738 
0.091373 
0.123734 
0.104437 
0.067820 
0.085600 
0.102026 
0.087053 
0.078522 
0.039003 
0.019056 
0.031574 
0.062562 
0.069737 
0.052930 
0.038558 
0.027003 
0.030570 
0.046761 
0.065018 
0.070581 
0.086128 
0.097115 
0.074818 
0.045291 
0.045083 
0.026791 
0.030542 
0.060000 
0.065336 
0.043636 
0.018465 
0.015238 
0.032130 
0.052043 
0.083258 
0.072950 
0.046509 
0.057083 
0.072884 
0.070716 
0.105510 
0.118610 
0.100931 
0.051246 
0.036071 
0.057114 
0.085604 
0.071592 
0.061744 
0.065061 
0.052583 
0.063419 
0.071256 
0.090089 
0.074744 
0.045254 
0.039371 
0.032348 
0.049460 
0.093207 
0.102086 
0.103820 
0.112670 
0.098424 
0.095705 
0.045110 
0.020166 
0.023909 
0.059342 
0.098077 
0.076619 
0.053419 
0.036119 
0.010250 
0.011571 
0.020639 
0.052408 
0.079226 
0.075513 
0.039405 
0.022768 
0.024607 
0.041974 
0.089319 
0.109855 
0.108316 
0.049260 
0.023709 
0.031202 
0.035645 
0.037049 
0.046766 
0.021121 
0.000000 
0.015834 
0.041638 
0.056915 
0.040417 
0.043738 
0.049558 
0.065065 
0.086497 
0.064367 
0.049114 
0.076171 
0.090125 
0.078224 
0.050076 
0.019207 
0.000000 
0.013030 
0.035519 
0.052345 
0.056090 
0.034002 
0.025955 
0.033269 
0.043047 
0.073115 
0.085505 
0.085971 
0.076294 
0.065518 
0.036752 
0.029140 
0.019326 
0.020247 
0.041633 
0.056075 
0.034058 
0.016374 
0.024511 
0.055125 
0.070169 
0.086150 
0.058376 
0.029203 
0.033855 
0.058246 
0.069527 
0.120667 
0.137378 
0.122882 
0.068317 
0.065067 
0.088334 
0.099547 
0.054438 
0.032904 
0.042104 
0.057041 
0.067294 
0.060167 
0.076240 
0.056956 
0.036642 
0.043261 
0.038445 
0.033760 
0.058997 
0.091352 
0.107716 
0.112847 
0.079135 
0.074065 
0.033810 
0.015002 
0.029181 
0.073966 
0.106473 
0.102068 
0.086237 
0.064206 
0.000000 
0.000000 
0.000000 
0.031273 
0.065484 
0.064884 
0.031785 
0.021740 
0.030997 
0.031705 
0.054652 
0.080229 
0.100182 
0.047833 
0.020975 
0.028007 
0.046694 
0.041982 
0.048621 
0.022704 
0.009676 
0.024773 
0.059379 
0.068446 
0.055029 
0.067815 
0.065373 
0.045132 
0.043691 
0.031311 
0.028183 
0.055216 
0.081471 
0.055496 
0.027321 
0.012479 
0.000000 
0.000000 
0.020389 
0.040187 
0.043189 
0.035786 
0.045260 
0.052863 
0.038531 
0.043776 
0.045280 
0.046893 
0.048109 
0.038914 
0.025845 
0.025401 
0.026663 
0.016849 
0.020635 
0.032015 
0.029940 
0.015389 
0.017724 
0.042873 
0.069518 
0.073872 
0.050883 
0.026864 
0.036898 
0.071486 
0.069849 
0.104361 
0.115718 
0.117234 
0.080203 
0.089212 
0.080646 
0.080750 
0.042332 
0.023147 
0.038584 
0.070695 
0.056185 
0.035109 
0.041248 
0.044048 
0.047636 
0.078712 
0.067957 
0.035093 
0.035214 
0.059432 
0.069350 
0.078548 
0.045796 
0.031722 
0.012665 
0.000000 
0.012771 
0.038363 
0.062373 
0.077993 
0.084253 
0.085446 
0.022672 
0.016046 
0.014888 
0.041033 
0.091234 
0.092225 
0.048040 
0.042828 
0.063903 
0.046391 
0.055015 
0.078609 
0.100402 
0.050439 
0.023781 
0.021202 
0.027336 
0.024635 
0.024198 
0.009620 
0.000000 
0.017701 
0.051967 
0.082369 
0.065783 
0.054103 
0.043437 
0.031082 
0.038946 
0.035816 
0.026146 
0.042570 
0.066737 
0.041510 
0.028155 
0.028252 
0.013432 
0.011176 
0.031522 
0.063001 
0.065197 
0.061617 
0.066695 
0.050136 
0.036632 
0.039182 
0.029048 
0.034470 
0.053173 
0.040363 
0.042404 
0.052093 
0.056233 
0.028679 
0.019522 
0.027378 
0.040487 
0.019927 
0.010095 
0.020388 
0.046743 
0.071528 
0.063643 
0.033071 
0.035726 
0.064943 
0.056750 
0.080219 
0.099548 
0.103051 
0.077592 
0.090355 
0.058017 
0.046598 
0.035594 
0.022207 
0.035622 
0.068307 
0.052621 
0.027246 
0.030579 
0.049436 
0.050383 
0.072836 
0.053042 
0.025546 
0.028113 
0.050386 
0.039964 
0.034234 
0.014910 
0.000000 
0.000000 
0.000000 
0.000000 
0.023160 
0.054964 
0.081097 
0.083666 
0.064031 
0.056846 
0.044059 
0.031518 
0.046713 
0.088501 
0.089225 
0.052575 
0.056402 
0.074802 
0.061599 
0.078296 
0.099410 
0.109630 
0.064893 
0.048440 
0.038170 
0.027824 
0.027185 
0.015330 
0.000000 
0.000000 
0.014611 
0.044139 
0.084424 
0.083819 
0.067632 
0.050201 
0.041290 
0.063712 
0.065580 
0.039964 
0.041438 
0.045750 
0.039053 
0.052782 
0.066065 
0.033237 
0.023007 
0.046270 
0.079361 
0.099884 
0.090032 
0.072971 
0.054298 
0.062573 
0.071941 
0.039286 
0.031832 
0.050259 
0.046696 
0.069138 
0.082039 
0.069642 
0.036633 
0.028018 
0.020563 
0.021928 
0.008896 
0.000000 
0.000000 
0.016306 
0.033113 
0.034055 
0.018008 
0.018694 
0.035312 
0.039068 
0.062490 
0.064796 
0.067495 
0.058240 
0.073910 
0.043007 
0.036736 
0.048931 
0.029243 
0.028542 
0.046096 
0.050825 
0.025343 
0.017208 
0.024405 
0.026418 
0.042241 
0.038258 
0.018712 
0.016868 
0.029483 
0.024047 
0.016873 
0.000000 
0.000000 
0.000000 
0.000000 
0.000000 
0.024640 
0.058145 
0.060734 
0.057243 
0.035502 
0.062127 
0.066328 
0.058250 
0.050822 
0.051378 
0.048544 
0.039804 
0.056511 
0.056875 
0.053166 
0.053356 
0.067483 
0.093015 
0.087322 
0.097253 
0.076790 
0.048985 
0.049785 
0.025325 
0.014755 
0.021485 
0.023366 
0.039692 
0.056240 
0.069981 
0.093147 
0.074904 
0.043266 
0.047453 
0.058171 
0.046165 
0.059772 
0.059863 
0.061263 
0.077495 
0.077408 
0.038721 
0.033413 
0.066659 
0.090710 
0.095864 
0.077352 
0.079890 
0.083150 
0.101052 
0.090820 
0.049159 
0.042643 
0.066029 
0.045605 
0.052537 
0.077181 
0.085270 
0.053427 
0.047141 
0.024770 
0.014315 
0.000000 
0.000000 
0.000000 
0.000000 
0.016426 
0.026276 
0.015748 
0.016702 
0.028622 
0.024408 
0.033619 
0.043040 
0.058512 
0.048948 
0.051819 
0.029124 
0.028596 
0.047112 
0.034303 
0.035251 
0.028802 
0.025807 
0.013872 
0.011075 
0.012057 
0.020523 
0.044648 
0.051643 
0.026238 
0.020771 
0.038079 
0.044468 
0.035949 
0.021888 
0.023318 
0.013911 
0.000000 
0.000000 
0.020966 
0.047428 
0.049256 
0.054003 
0.031893 
0.041301 
0.059673 
0.089185 
0.074387 
0.044834 
0.036609 
0.026367 
0.033595 
0.044662 
0.066844 
0.049059 
0.044689 
0.067381 
0.095437 
0.106975 
0.066948 
0.040356 
0.043741 
0.025901 
0.025900 
0.045081 
0.044437 
0.057647 
0.056061 
0.060513 
0.088676 
0.060472 
0.035735 
0.045059 
0.072080 
0.050813 
0.058138 
0.075784 
0.072504 
0.054703 
0.038911 
0.017220 
0.015000 
0.029957 
0.038973 
0.039667 
0.037188 
0.060318 
0.096035 
0.098733 
0.069869 
0.048554 
0.046293 
0.062563 
0.038054 
0.040465 
0.072735 
0.079352 
0.042951 
0.029527 
0.020479 
0.022277 
0.009534 
0.000000 
0.000000 
0.009179 
0.022121 
0.040366 
0.027027 
0.030941 
0.046285 
0.027267 
0.023579 
0.035476 
0.044093 
0.051366 
0.056091 
0.034006 
0.040575 
0.073980 
0.062455 
0.070989 
0.039782 
0.019272 
0.016380 
0.025483 
0.019280 
0.027914 
0.054375 
0.045673 
0.024581 
0.031259 
0.069769 
0.092021 
0.074530 
0.049921 
0.057140 
0.042444 
0.022593 
0.018172 
0.031831 
0.056241 
0.050539 
0.038500 
0.025146 
0.029637 
0.050703 
0.090882 
0.063205 
0.040465 
0.046697 
0.031102 
0.026081 
0.038272 
0.071272 
0.065472 
0.056856 
0.064341 
0.082442 
0.088452 
0.055316 
0.044370 
0.056153 
0.034790 
0.025838 
0.034602 
0.042056 
0.049831 
0.058265 
0.053333 
0.070519 
0.047872 
0.042059 
0.054142 
0.082368 
0.054301 
0.053676 
0.059521 
0.044864 
0.027424 
0.014272 
0.000000 
0.000000 
0.000000 
0.000000 
0.000000 
0.013003 
0.038923 
0.075563 
0.064439 
0.051642 
0.058042 
0.050043 
0.039052 
0.019566 
0.017632 
0.033885 
0.038268 
0.020308 
0.015918 
0.025038 
0.043173 
0.024119 
0.012743 
0.012511 
0.021865 
0.021303 
0.028893 
0.025723 
0.039061 
0.046535 
0.026565 
0.026838 
0.045780 
0.044213 
0.054331 
0.044417 
0.032045 
0.047744 
0.090078 
0.077577 
0.091632 
0.058018 
0.028673 
0.033580 
0.058404 
0.037525 
0.031393 
0.050912 
0.044553 
0.025257 
0.023888 
0.051311 
0.078336 
0.057945 
0.045894 
0.063805 
0.067178 
0.052797 
0.045314 
0.045787 