# vtk DataFile Version 3.0
results.vtk
ASCII
DATASET RECTILINEAR_GRID
DIMENSIONS 100 100 1
X_COORDINATES 100 double
0.000000 0.010000 0.020000 0.030000 0.040000 0.050000 0.060000 0.070000 0.080000 0.090000 0.100000 0.110000 0.120000 0.130000 0.140000 0.150000 0.160000 0.170000 0.180000 0.190000 0.200000 0.210000 0.220000 0.230000 0.240000 0.250000 0.260000 0.270000 0.280000 0.290000 0.300000 0.310000 0.320000 0.330000 0.340000 0.350000 0.360000 0.370000 0.380000 0.390000 0.400000 0.410000 0.420000 0.430000 0.440000 0.450000 0.460000 0.470000 0.480000 0.490000 0.500000 0.510000 0.520000 0.530000 0.540000 0.550000 0.560000 0.570000 0.580000 0.590000 0.600000 0.610000 0.620000 0.630000 0.640000 0.650000 0.660000 0.670000 0.680000 0.690000 0.700000 0.710000 0.720000 0.730000 0.740000 0.750000 0.760000 0.770000 0.780000 0.790000 0.800000 0.810000 0.820000 0.830000 0.840000 0.850000 0.860000 0.870000 0.880000 0.890000 0.900000 0.910000 0.920000 0.930000 0.940000 0.950000 0.960000 0.970000 0.980000 0.990000 
Y_COORDINATES 100 double
0.000000 0.010000 0.020000 0.030000 0.040000 0.050000 0.060000 0.070000 0.080000 0.090000 0.100000 0.110000 0.120000 0.130000 0.140000 0.150000 0.160000 0.170000 0.180000 0.190000 0.200000 0.210000 0.220000 0.230000 0.240000 0.250000 0.260000 0.270000 0.280000 0.290000 0.300000 0.310000 0.320000 0.330000 0.340000 0.350000 0.360000 0.370000 0.380000 0.390000 0.400000 0.410000 0.420000 0.430000 0.440000 0.450000 0.460000 0.470000 0.480000 0.490000 0.500000 0.510000 0.520000 0.530000 0.540000 0.550000 0.560000 0.570000 0.580000 0.590000 0.600000 0.610000 0.620000 0.630000 0.640000 0.650000 0.660000 0.670000 0.680000 0.690000 0.700000 0.710000 0.720000 0.730000 0.740000 0.750000 0.760000 0.770000 0.780000 0.790000 0.800000 0.810000 0.820000 0.830000 0.840000 0.850000 0.860000 0.870000 0.880000 0.890000 0.900000 0.910000 0.920000 0.930000 0.940000 0.950000 0.960000 0.970000 0.980000 0.990000 
Z_COORDINATES 1 double
0
POINT_DATA 10000 
FIELD FieldData 1 
Concentração 1 10000 double 
0.011778 
0.011512 
0.010400 
0.009195 
0.008489 
0.007835 
0.007709 
0.007492 
0.006829 
0.006577 
0.007420 
0.008132 
0.007452 
0.006756 
0.007510 
0.008923 
0.009464 
0.008813 
0.008014 
0.007925 
0.008654 
0.009469 
0.009416 
0.009083 
0.008696 
0.007771 
0.006441 
0.005773 
0.005792 
0.005716 
0.006023 
0.007092 
0.007694 
0.007015 
0.005801 
0.005516 
0.005768 
0.005205 
0.004276 
0.004248 
0.005221 
0.006417 
0.007007 
0.005998 
0.003306 
0.000000 
0.002055 
0.004341 
0.006802 
0.009121 
0.010216 
0.008812 
0.005926 
0.002811 
0.000000 
0.000000 
0.000000 
0.005998 
0.010362 
0.011978 
0.011021 
0.009551 
0.008220 
0.007589 
0.007004 
0.006329 
0.006342 
0.006722 
0.006397 
0.005690 
0.004577 
0.003668 
0.003140 
0.003166 
0.003513 
0.003870 
0.003350 
0.001826 
0.000000 
0.000000 
0.002506 
0.004453 
0.006511 
0.008215 
0.009173 
0.008846 
0.007371 
0.006255 
0.005902 
0.006403 
0.007152 
0.006959 
0.005301 
0.003842 
0.003656 
0.004611 
0.005457 
0.004663 
0.002889 
0.000000 
0.011248 
0.010966 
0.009902 
0.008722 
0.007892 
0.007161 
0.007026 
0.006926 
0.006577 
0.006732 
0.007774 
0.008309 
0.007258 
0.006318 
0.007028 
0.008629 
0.009429 
0.008815 
0.007759 
0.007445 
0.008084 
0.008886 
0.009052 
0.009032 
0.008757 
0.007949 
0.006811 
0.006185 
0.006082 
0.005843 
0.005925 
0.006798 
0.007377 
0.006839 
0.005816 
0.005598 
0.005718 
0.005030 
0.004148 
0.004165 
0.005084 
0.006259 
0.006857 
0.005937 
0.003378 
0.000000 
0.002106 
0.004105 
0.006190 
0.008365 
0.009650 
0.008557 
0.005823 
0.002797 
0.000000 
0.000000 
0.002443 
0.006756 
0.010634 
0.011881 
0.010658 
0.009009 
0.007702 
0.007214 
0.006928 
0.006621 
0.006784 
0.007069 
0.006619 
0.005902 
0.004907 
0.004135 
0.003650 
0.003669 
0.003963 
0.004183 
0.003431 
0.001808 
0.000000 
0.001169 
0.002901 
0.004612 
0.006564 
0.008153 
0.008814 
0.008303 
0.007019 
0.006266 
0.006138 
0.006457 
0.006782 
0.006453 
0.005111 
0.004015 
0.003867 
0.004576 
0.005241 
0.004612 
0.003349 
0.002022 
0.009732 
0.009467 
0.008629 
0.007655 
0.006573 
0.005563 
0.005343 
0.005662 
0.006248 
0.007305 
0.008570 
0.008605 
0.006874 
0.005570 
0.006246 
0.008168 
0.009453 
0.008976 
0.007505 
0.006710 
0.007058 
0.007811 
0.008434 
0.008956 
0.008799 
0.008284 
0.007632 
0.007015 
0.006446 
0.005685 
0.005218 
0.005684 
0.006320 
0.006256 
0.005802 
0.005838 
0.005749 
0.004910 
0.004199 
0.004252 
0.004839 
0.005677 
0.006152 
0.005562 
0.003771 
0.002181 
0.002564 
0.003620 
0.004863 
0.006734 
0.008354 
0.008002 
0.005798 
0.003037 
0.000000 
0.000000 
0.003294 
0.007334 
0.010614 
0.011189 
0.009596 
0.007685 
0.006412 
0.006145 
0.006521 
0.007113 
0.007562 
0.007488 
0.006710 
0.006004 
0.005324 
0.004866 
0.004452 
0.004441 
0.004714 
0.004815 
0.003744 
0.001925 
0.000000 
0.001588 
0.003088 
0.004467 
0.006180 
0.007571 
0.007758 
0.007127 
0.006559 
0.006799 
0.007152 
0.006961 
0.006312 
0.005675 
0.005032 
0.004718 
0.004606 
0.004715 
0.004885 
0.004377 
0.003592 
0.002824 
0.007844 
0.007756 
0.007473 
0.007043 
0.005921 
0.004627 
0.004344 
0.005270 
0.006910 
0.008575 
0.009464 
0.008665 
0.006374 
0.004859 
0.005340 
0.007073 
0.008488 
0.008378 
0.007105 
0.006188 
0.006303 
0.007084 
0.008061 
0.008810 
0.008505 
0.008151 
0.007998 
0.007412 
0.006330 
0.004986 
0.004149 
0.004668 
0.005745 
0.006284 
0.006262 
0.006398 
0.006105 
0.005245 
0.004742 
0.004645 
0.004598 
0.004853 
0.005282 
0.005220 
0.004123 
0.003053 
0.002731 
0.002784 
0.002940 
0.004743 
0.006593 
0.007059 
0.005878 
0.003909 
0.001633 
0.000000 
0.003255 
0.006878 
0.009449 
0.009606 
0.008197 
0.006524 
0.005503 
0.005414 
0.006298 
0.007624 
0.008192 
0.007626 
0.006476 
0.005743 
0.005299 
0.004993 
0.004478 
0.004291 
0.004603 
0.004887 
0.004005 
0.002305 
0.000000 
0.001694 
0.002769 
0.003790 
0.005336 
0.006754 
0.006945 
0.006596 
0.006847 
0.007959 
0.008561 
0.007756 
0.006337 
0.005624 
0.005654 
0.005908 
0.005703 
0.005288 
0.004982 
0.004271 
0.003537 
0.002963 
0.006099 
0.006192 
0.006488 
0.006767 
0.006099 
0.004902 
0.004760 
0.006296 
0.008677 
0.010439 
0.010501 
0.008750 
0.006101 
0.004583 
0.004814 
0.005909 
0.006968 
0.007343 
0.006922 
0.006384 
0.006404 
0.007129 
0.008123 
0.008683 
0.007980 
0.007318 
0.007094 
0.006476 
0.005314 
0.003832 
0.002829 
0.004034 
0.005701 
0.006631 
0.006638 
0.006601 
0.006247 
0.005723 
0.005604 
0.005342 
0.004723 
0.004476 
0.004943 
0.005390 
0.004906 
0.004177 
0.003412 
0.002373 
0.000000 
0.003194 
0.005175 
0.006152 
0.006034 
0.004847 
0.002580 
0.000000 
0.002160 
0.004944 
0.006870 
0.007171 
0.006529 
0.005585 
0.005038 
0.005063 
0.005973 
0.007494 
0.008231 
0.007603 
0.006242 
0.005360 
0.005039 
0.004809 
0.004184 
0.003740 
0.004029 
0.004649 
0.004452 
0.003538 
0.002577 
0.002556 
0.002800 
0.003396 
0.004792 
0.006420 
0.007080 
0.007186 
0.007783 
0.008992 
0.009390 
0.008214 
0.006699 
0.006313 
0.006729 
0.006947 
0.006425 
0.005830 
0.005467 
0.004678 
0.003979 
0.003575 
0.005649 
0.005750 
0.006167 
0.006764 
0.006679 
0.005912 
0.006054 
0.007907 
0.010339 
0.011710 
0.011054 
0.008791 
0.006108 
0.004738 
0.004855 
0.005465 
0.006165 
0.006929 
0.007285 
0.007153 
0.007132 
0.007664 
0.008478 
0.008808 
0.007844 
0.006616 
0.005706 
0.004811 
0.003788 
0.002420 
0.000000 
0.003126 
0.005040 
0.006037 
0.006156 
0.006261 
0.006270 
0.006387 
0.006842 
0.006625 
0.005670 
0.005047 
0.005487 
0.006206 
0.006169 
0.005855 
0.005117 
0.003993 
0.002899 
0.003464 
0.004506 
0.005456 
0.006059 
0.005535 
0.003328 
0.000000 
0.000000 
0.002246 
0.003580 
0.004448 
0.004771 
0.004605 
0.004495 
0.004644 
0.005337 
0.006725 
0.007813 
0.007714 
0.006520 
0.005453 
0.005001 
0.004658 
0.004014 
0.003468 
0.003788 
0.004723 
0.005134 
0.004790 
0.004125 
0.003591 
0.003453 
0.003771 
0.004974 
0.006701 
0.007802 
0.008285 
0.008941 
0.009743 
0.009554 
0.008065 
0.006817 
0.007014 
0.007828 
0.007914 
0.006999 
0.006164 
0.005787 
0.005249 
0.005000 
0.004978 
0.006562 
0.006606 
0.006794 
0.007085 
0.007105 
0.006767 
0.007266 
0.009224 
0.011258 
0.011955 
0.010842 
0.008534 
0.006051 
0.004776 
0.004695 
0.005047 
0.005595 
0.006543 
0.007343 
0.007718 
0.008126 
0.008668 
0.009315 
0.009689 
0.008956 
0.007354 
0.005583 
0.004231 
0.003378 
0.002819 
0.002434 
0.003420 
0.004264 
0.004738 
0.004846 
0.005146 
0.005609 
0.006322 
0.007317 
0.007420 
0.006479 
0.005674 
0.005950 
0.006621 
0.006915 
0.007153 
0.006859 
0.005882 
0.004581 
0.003729 
0.003652 
0.004339 
0.005544 
0.005917 
0.004446 
0.002046 
0.000000 
0.000000 
0.000000 
0.001883 
0.003182 
0.003781 
0.004038 
0.004290 
0.004757 
0.005799 
0.006931 
0.007472 
0.006953 
0.005986 
0.005271 
0.004593 
0.003840 
0.003216 
0.003598 
0.004654 
0.005373 
0.005387 
0.004780 
0.004201 
0.004155 
0.004487 
0.005416 
0.006784 
0.007827 
0.008502 
0.009397 
0.010102 
0.009612 
0.007901 
0.006666 
0.007080 
0.008278 
0.008596 
0.007623 
0.006488 
0.005839 
0.005456 
0.005615 
0.005899 
0.007253 
0.007376 
0.007454 
0.007210 
0.006803 
0.006564 
0.007241 
0.009172 
0.010906 
0.011184 
0.010051 
0.008154 
0.006107 
0.004858 
0.004290 
0.004203 
0.004580 
0.005587 
0.006807 
0.007924 
0.009058 
0.009688 
0.010226 
0.011024 
0.010946 
0.009286 
0.006899 
0.005179 
0.004413 
0.004274 
0.004148 
0.004230 
0.004193 
0.004105 
0.003925 
0.003926 
0.004308 
0.005187 
0.006394 
0.006753 
0.005994 
0.005243 
0.005413 
0.006072 
0.006840 
0.007682 
0.007892 
0.007184 
0.005566 
0.003658 
0.002384 
0.002735 
0.004625 
0.005958 
0.005530 
0.003857 
0.002023 
0.000000 
0.000000 
0.000000 
0.002394 
0.003685 
0.004059 
0.004246 
0.004695 
0.005476 
0.006220 
0.006986 
0.007237 
0.006573 
0.005500 
0.004273 
0.003137 
0.002210 
0.003012 
0.004198 
0.005155 
0.005514 
0.004952 
0.004384 
0.004561 
0.005252 
0.006159 
0.007028 
0.007563 
0.008027 
0.009050 
0.009915 
0.009593 
0.008095 
0.006886 
0.007218 
0.008584 
0.009194 
0.008372 
0.007095 
0.006036 
0.005248 
0.005009 
0.005013 
0.006767 
0.007001 
0.007116 
0.006527 
0.005658 
0.005291 
0.006016 
0.008034 
0.009948 
0.010302 
0.009428 
0.008005 
0.006425 
0.005287 
0.004308 
0.003790 
0.003894 
0.004665 
0.005941 
0.007454 
0.009017 
0.009731 
0.010327 
0.011594 
0.012046 
0.010494 
0.008064 
0.006427 
0.005949 
0.006144 
0.005915 
0.005445 
0.005025 
0.004735 
0.004248 
0.003668 
0.003588 
0.004328 
0.005459 
0.005788 
0.005026 
0.004149 
0.004118 
0.004995 
0.006403 
0.007730 
0.008212 
0.007588 
0.005717 
0.003081 
0.000000 
0.000000 
0.003656 
0.005836 
0.006537 
0.005821 
0.004414 
0.002363 
0.000000 
0.000000 
0.002582 
0.004378 
0.004870 
0.005038 
0.005626 
0.006161 
0.006177 
0.006661 
0.007478 
0.007406 
0.006265 
0.004531 
0.002712 
0.000000 
0.002845 
0.004212 
0.005010 
0.005411 
0.005020 
0.004567 
0.004824 
0.005730 
0.006644 
0.007102 
0.007101 
0.007196 
0.008134 
0.009168 
0.009310 
0.008440 
0.007428 
0.007398 
0.008300 
0.008680 
0.007997 
0.007078 
0.006210 
0.005285 
0.004493 
0.003969 
0.006141 
0.006320 
0.006232 
0.005390 
0.004413 
0.004032 
0.004645 
0.006501 
0.008512 
0.009128 
0.008756 
0.007887 
0.006777 
0.005919 
0.004964 
0.004422 
0.004366 
0.004724 
0.005550 
0.006666 
0.008008 
0.008791 
0.009636 
0.011182 
0.011762 
0.010332 
0.008248 
0.006955 
0.006948 
0.007725 
0.007841 
0.007245 
0.006570 
0.006042 
0.005294 
0.004294 
0.003768 
0.004164 
0.004883 
0.004926 
0.004138 
0.003056 
0.002597 
0.003841 
0.005863 
0.007521 
0.008189 
0.007713 
0.005891 
0.003202 
0.000000 
0.001698 
0.003945 
0.005851 
0.007115 
0.007378 
0.006611 
0.004544 
0.001923 
0.000000 
0.002640 
0.004922 
0.005985 
0.006547 
0.007319 
0.007406 
0.006553 
0.006566 
0.007740 
0.008412 
0.007610 
0.005851 
0.004272 
0.003724 
0.005011 
0.005660 
0.005569 
0.005474 
0.005261 
0.004961 
0.004936 
0.005470 
0.006208 
0.006604 
0.006557 
0.006395 
0.007122 
0.008358 
0.009047 
0.008733 
0.007927 
0.007536 
0.007637 
0.007332 
0.006554 
0.006134 
0.006061 
0.005789 
0.004960 
0.004058 
0.005882 
0.005881 
0.005501 
0.004664 
0.004010 
0.003651 
0.003773 
0.004924 
0.006760 
0.007665 
0.007747 
0.007376 
0.006797 
0.006476 
0.005987 
0.005776 
0.005684 
0.005666 
0.005764 
0.005876 
0.006438 
0.007101 
0.008128 
0.009762 
0.010500 
0.009608 
0.008243 
0.007412 
0.007817 
0.009194 
0.010012 
0.009422 
0.008016 
0.006793 
0.005901 
0.004994 
0.004329 
0.004303 
0.004323 
0.003890 
0.003150 
0.001868 
0.000000 
0.002084 
0.004713 
0.006401 
0.007145 
0.007086 
0.005882 
0.003967 
0.002508 
0.003119 
0.004568 
0.005763 
0.006773 
0.007509 
0.007328 
0.005417 
0.002523 
0.000000 
0.001996 
0.004921 
0.007145 
0.008603 
0.009661 
0.009232 
0.007509 
0.007020 
0.008251 
0.009316 
0.008934 
0.007540 
0.006384 
0.006644 
0.007997 
0.008086 
0.006941 
0.006032 
0.005783 
0.005721 
0.005599 
0.005744 
0.006355 
0.006854 
0.006923 
0.006426 
0.006757 
0.007945 
0.008848 
0.008681 
0.007993 
0.007590 
0.007237 
0.006491 
0.005718 
0.005804 
0.006523 
0.006927 
0.006153 
0.004926 
0.006814 
0.006668 
0.006235 
0.005617 
0.005317 
0.004384 
0.003346 
0.003232 
0.005650 
0.007371 
0.007525 
0.006877 
0.006093 
0.006040 
0.006206 
0.006604 
0.006865 
0.007065 
0.006719 
0.005950 
0.005913 
0.006378 
0.007256 
0.008577 
0.009339 
0.009120 
0.008523 
0.008204 
0.008908 
0.010698 
0.012281 
0.011675 
0.009160 
0.007171 
0.006397 
0.005862 
0.005204 
0.004852 
0.004030 
0.002434 
0.001762 
0.000969 
0.000000 
0.000000 
0.004579 
0.005915 
0.006121 
0.006118 
0.005496 
0.004419 
0.003797 
0.004554 
0.005726 
0.006008 
0.006060 
0.006623 
0.006859 
0.005111 
0.001914 
0.000000 
0.000000 
0.005006 
0.009022 
0.011640 
0.013049 
0.012279 
0.009608 
0.008565 
0.009774 
0.011255 
0.011479 
0.010556 
0.009593 
0.009727 
0.010896 
0.010359 
0.008547 
0.006937 
0.006420 
0.006925 
0.007475 
0.007649 
0.008328 
0.008888 
0.008947 
0.008061 
0.008120 
0.008840 
0.009090 
0.008454 
0.007788 
0.007741 
0.007463 
0.006769 
0.006432 
0.007256 
0.008405 
0.008695 
0.007543 
0.005837 
0.012194 
0.011820 
0.011181 
0.010395 
0.010091 
0.006909 
0.003473 
0.000000 
0.007105 
0.010857 
0.009728 
0.006965 
0.004109 
0.003883 
0.005002 
0.006524 
0.008395 
0.010462 
0.010330 
0.008814 
0.008780 
0.009220 
0.009977 
0.010645 
0.010405 
0.009953 
0.009354 
0.009206 
0.010181 
0.012615 
0.015753 
0.015342 
0.011188 
0.008410 
0.007973 
0.007881 
0.007244 
0.007121 
0.005580 
0.000000 
0.000000 
0.000000 
0.000000 
0.006197 
0.008997 
0.007939 
0.006294 
0.005824 
0.005604 
0.005299 
0.005845 
0.008044 
0.009554 
0.008410 
0.006903 
0.007397 
0.008688 
0.006568 
0.000000 
0.000000 
0.000000 
0.007213 
0.013861 
0.017937 
0.019668 
0.018538 
0.014038 
0.012229 
0.013856 
0.016894 
0.018635 
0.018445 
0.017045 
0.015312 
0.015410 
0.013786 
0.012050 
0.010326 
0.009435 
0.011042 
0.012887 
0.012993 
0.014100 
0.015172 
0.015295 
0.013591 
0.013838 
0.013946 
0.012544 
0.010226 
0.008243 
0.007858 
0.007827 
0.007958 
0.009320 
0.012322 
0.014345 
0.013801 
0.011433 
0.008358 
0.028621 
0.027586 
0.025802 
0.023986 
0.024468 
0.014921 
0.007306 
0.007822 
0.017471 
0.025266 
0.019273 
0.010828 
0.000000 
0.000000 
0.003635 
0.007046 
0.012994 
0.020801 
0.022036 
0.019080 
0.020708 
0.021704 
0.023084 
0.022761 
0.018402 
0.015438 
0.012900 
0.012367 
0.014449 
0.019116 
0.027099 
0.027146 
0.018374 
0.014248 
0.015238 
0.016361 
0.015529 
0.017293 
0.016616 
0.012804 
0.012368 
0.014586 
0.016365 
0.021062 
0.022421 
0.015363 
0.009824 
0.009268 
0.009483 
0.009122 
0.011583 
0.018331 
0.021342 
0.016789 
0.011816 
0.013057 
0.018463 
0.016505 
0.008077 
0.000000 
0.005467 
0.014175 
0.026936 
0.034691 
0.038167 
0.036786 
0.026385 
0.022931 
0.025838 
0.032662 
0.037423 
0.038753 
0.036429 
0.029755 
0.028890 
0.025110 
0.024703 
0.023334 
0.020580 
0.024485 
0.028865 
0.027792 
0.030800 
0.034452 
0.034839 
0.029318 
0.030666 
0.030663 
0.026700 
0.020167 
0.012875 
0.010313 
0.010746 
0.013374 
0.019319 
0.028647 
0.033321 
0.030413 
0.024007 
0.016038 
0.031903 
0.031478 
0.027636 
0.026977 
0.028047 
0.016899 
0.009449 
0.013295 
0.025758 
0.032455 
0.024623 
0.017132 
0.007362 
0.000000 
0.000000 
0.000000 
0.008045 
0.019072 
0.026508 
0.028438 
0.035521 
0.038273 
0.039866 
0.038254 
0.027945 
0.021000 
0.014075 
0.012100 
0.014529 
0.016458 
0.021480 
0.022020 
0.018165 
0.020083 
0.023908 
0.025701 
0.025058 
0.028324 
0.029654 
0.027824 
0.028410 
0.031816 
0.032567 
0.031999 
0.027175 
0.016867 
0.012903 
0.016353 
0.017408 
0.013679 
0.015321 
0.022778 
0.023771 
0.020473 
0.015044 
0.013920 
0.019455 
0.021879 
0.016008 
0.012337 
0.010819 
0.012663 
0.020522 
0.028777 
0.036060 
0.036220 
0.027933 
0.026847 
0.027549 
0.028414 
0.029531 
0.032329 
0.033152 
0.028276 
0.029496 
0.029968 
0.035803 
0.038348 
0.032460 
0.032885 
0.034468 
0.032312 
0.034970 
0.041947 
0.040332 
0.031969 
0.032078 
0.033036 
0.034190 
0.028708 
0.016442 
0.010387 
0.012582 
0.020724 
0.031186 
0.042256 
0.044279 
0.037347 
0.025852 
0.017452 
0.031020 
0.031228 
0.028040 
0.030304 
0.029451 
0.017533 
0.011825 
0.019306 
0.034052 
0.037405 
0.029979 
0.025845 
0.015036 
0.008456 
0.007625 
0.004139 
0.000000 
0.013674 
0.024628 
0.030833 
0.041537 
0.047306 
0.047192 
0.046380 
0.037263 
0.030509 
0.019233 
0.015138 
0.017686 
0.017915 
0.021633 
0.022668 
0.021360 
0.026287 
0.029134 
0.028102 
0.027523 
0.028066 
0.031341 
0.035661 
0.038474 
0.041598 
0.041473 
0.034501 
0.026862 
0.017438 
0.017325 
0.025985 
0.028470 
0.019356 
0.016578 
0.022085 
0.024206 
0.027020 
0.023379 
0.017531 
0.019187 
0.022368 
0.020004 
0.020792 
0.018153 
0.013827 
0.015402 
0.019939 
0.024404 
0.023308 
0.019200 
0.021768 
0.025954 
0.025311 
0.022679 
0.023492 
0.023283 
0.023731 
0.030813 
0.033985 
0.039697 
0.044241 
0.037244 
0.033676 
0.035624 
0.033679 
0.033028 
0.038355 
0.035623 
0.031216 
0.033373 
0.033465 
0.035482 
0.031434 
0.018559 
0.012295 
0.017105 
0.028414 
0.038852 
0.047808 
0.049047 
0.039542 
0.027263 
0.022715 
0.040830 
0.040848 
0.038036 
0.043708 
0.039621 
0.023272 
0.015966 
0.023635 
0.037917 
0.040719 
0.031961 
0.027255 
0.016877 
0.012002 
0.012637 
0.007832 
0.005158 
0.013669 
0.024806 
0.029971 
0.036746 
0.045011 
0.047021 
0.046936 
0.041280 
0.033773 
0.020578 
0.015001 
0.016059 
0.018854 
0.026167 
0.028100 
0.022927 
0.022981 
0.024441 
0.027496 
0.032028 
0.030046 
0.030946 
0.033495 
0.034851 
0.039592 
0.039743 
0.029472 
0.020277 
0.013987 
0.015796 
0.023605 
0.027282 
0.019110 
0.016165 
0.021178 
0.024219 
0.031716 
0.033020 
0.025564 
0.024409 
0.024103 
0.019571 
0.021050 
0.022756 
0.019201 
0.020987 
0.024660 
0.025888 
0.020480 
0.014960 
0.015170 
0.020209 
0.023730 
0.022392 
0.021668 
0.018516 
0.021644 
0.033145 
0.039008 
0.042512 
0.043834 
0.036627 
0.029503 
0.029131 
0.026560 
0.027187 
0.033721 
0.035559 
0.037489 
0.041536 
0.042437 
0.044275 
0.041292 
0.026605 
0.017652 
0.019568 
0.024090 
0.028029 
0.035160 
0.042263 
0.039749 
0.032847 
0.033293 
0.047157 
0.045742 
0.042958 
0.050057 
0.043787 
0.027945 
0.021699 
0.027041 
0.033896 
0.034285 
0.025546 
0.020008 
0.011929 
0.007087 
0.007243 
0.004062 
0.000000 
0.012543 
0.022784 
0.027289 
0.030266 
0.039493 
0.044661 
0.043063 
0.040467 
0.031270 
0.020483 
0.017953 
0.017565 
0.018774 
0.024437 
0.028921 
0.025400 
0.024211 
0.024899 
0.029737 
0.035462 
0.034659 
0.034378 
0.032110 
0.027729 
0.030421 
0.032773 
0.026803 
0.019626 
0.016435 
0.018259 
0.020818 
0.021498 
0.015489 
0.012063 
0.015052 
0.020093 
0.030757 
0.035183 
0.029987 
0.027349 
0.020864 
0.014346 
0.016111 
0.021716 
0.023134 
0.030128 
0.037664 
0.040704 
0.032081 
0.021588 
0.014616 
0.014664 
0.018251 
0.019216 
0.016978 
0.015264 
0.023159 
0.038021 
0.042216 
0.042386 
0.035926 
0.028940 
0.025126 
0.026189 
0.024795 
0.029430 
0.038701 
0.045529 
0.053918 
0.059884 
0.057721 
0.052594 
0.049970 
0.037701 
0.027500 
0.025655 
0.022919 
0.018825 
0.021507 
0.030259 
0.034794 
0.034446 
0.036352 
0.041155 
0.039727 
0.039045 
0.046718 
0.040575 
0.032677 
0.032272 
0.036255 
0.033303 
0.027253 
0.021845 
0.019269 
0.011878 
0.000000 
0.000000 
0.000000 
0.008034 
0.017916 
0.023902 
0.022730 
0.023546 
0.032750 
0.037584 
0.035022 
0.035260 
0.029673 
0.024543 
0.028447 
0.030111 
0.028760 
0.030320 
0.037910 
0.037588 
0.035563 
0.033611 
0.032527 
0.031608 
0.031055 
0.028962 
0.025252 
0.022387 
0.027460 
0.032875 
0.032058 
0.028570 
0.027840 
0.029550 
0.029699 
0.028100 
0.020977 
0.013101 
0.011208 
0.012945 
0.020432 
0.027051 
0.028181 
0.025430 
0.016121 
0.010381 
0.013751 
0.021171 
0.023010 
0.027802 
0.036498 
0.046341 
0.042523 
0.031656 
0.021152 
0.017467 
0.019044 
0.019721 
0.015301 
0.015396 
0.026509 
0.041861 
0.043688 
0.040437 
0.031011 
0.027117 
0.025762 
0.025400 
0.025122 
0.030532 
0.036257 
0.041583 
0.054604 
0.066351 
0.065395 
0.057726 
0.056046 
0.049101 
0.037520 
0.028686 
0.022961 
0.016614 
0.019085 
0.029978 
0.037233 
0.039152 
0.040107 
0.037330 
0.035723 
0.035281 
0.042902 
0.039604 
0.038511 
0.039594 
0.040244 
0.034113 
0.027508 
0.028863 
0.030507 
0.023616 
0.011989 
0.008409 
0.011435 
0.017342 
0.027445 
0.030839 
0.021154 
0.015187 
0.018672 
0.022036 
0.022348 
0.025282 
0.026773 
0.027490 
0.037660 
0.046193 
0.043703 
0.038561 
0.045192 
0.047210 
0.042558 
0.037803 
0.027982 
0.021047 
0.021712 
0.024396 
0.024235 
0.022813 
0.025513 
0.026568 
0.028290 
0.032350 
0.035670 
0.037407 
0.041307 
0.042259 
0.033266 
0.020300 
0.014500 
0.011760 
0.016143 
0.025742 
0.031429 
0.027099 
0.015186 
0.009274 
0.012623 
0.020134 
0.025138 
0.026869 
0.030213 
0.039078 
0.038762 
0.032732 
0.030321 
0.029435 
0.026819 
0.020536 
0.015509 
0.019241 
0.031397 
0.041873 
0.041518 
0.036697 
0.030354 
0.032419 
0.033576 
0.031851 
0.028242 
0.027727 
0.029535 
0.030568 
0.041974 
0.058258 
0.062013 
0.057788 
0.056318 
0.053003 
0.043736 
0.027719 
0.018044 
0.015009 
0.022808 
0.035065 
0.035295 
0.031120 
0.028146 
0.021196 
0.021321 
0.024790 
0.035044 
0.036231 
0.034315 
0.029378 
0.026108 
0.023808 
0.026181 
0.037261 
0.042428 
0.037537 
0.021863 
0.015007 
0.017884 
0.020172 
0.025909 
0.028568 
0.017256 
0.008399 
0.010166 
0.015017 
0.018058 
0.018878 
0.021917 
0.027228 
0.040452 
0.050533 
0.045401 
0.036661 
0.041813 
0.046255 
0.041576 
0.034165 
0.020599 
0.012282 
0.016220 
0.025234 
0.028596 
0.025070 
0.020507 
0.017417 
0.019204 
0.025231 
0.032429 
0.036568 
0.041364 
0.042714 
0.034561 
0.023086 
0.018494 
0.013842 
0.016096 
0.025310 
0.028670 
0.021679 
0.012101 
0.010359 
0.017059 
0.026131 
0.034380 
0.031503 
0.025533 
0.029167 
0.034286 
0.036695 
0.046590 
0.050792 
0.044039 
0.028634 
0.022774 
0.028976 
0.037477 
0.035460 
0.031482 
0.030394 
0.028449 
0.031590 
0.034433 
0.037619 
0.032359 
0.024477 
0.022161 
0.021246 
0.028566 
0.043410 
0.050543 
0.052354 
0.053276 
0.048025 
0.041109 
0.023939 
0.013649 
0.015305 
0.028552 
0.041509 
0.038248 
0.030194 
0.023829 
0.007439 
0.008266 
0.012749 
0.025528 
0.034595 
0.033121 
0.022245 
0.015908 
0.016398 
0.023192 
0.038244 
0.047146 
0.044898 
0.026036 
0.015139 
0.015994 
0.018436 
0.020399 
0.021518 
0.011752 
0.000000 
0.009346 
0.019329 
0.024535 
0.022145 
0.023487 
0.026468 
0.032489 
0.038088 
0.032520 
0.028013 
0.035665 
0.041176 
0.035766 
0.024700 
0.011772 
0.000000 
0.007670 
0.017619 
0.024389 
0.024519 
0.018844 
0.016344 
0.018466 
0.022852 
0.031477 
0.036331 
0.037868 
0.035812 
0.029516 
0.019830 
0.015427 
0.012028 
0.012624 
0.019372 
0.023251 
0.017367 
0.010792 
0.012865 
0.022983 
0.031772 
0.036610 
0.028725 
0.019281 
0.021139 
0.029913 
0.037266 
0.052934 
0.059750 
0.053748 
0.037267 
0.033726 
0.038771 
0.040817 
0.028925 
0.021073 
0.023120 
0.028088 
0.030637 
0.029907 
0.032637 
0.027916 
0.022155 
0.023005 
0.021303 
0.021275 
0.030624 
0.041779 
0.047946 
0.048645 
0.039020 
0.031628 
0.017576 
0.009723 
0.015206 
0.030831 
0.043764 
0.044385 
0.039020 
0.032719 
0.000000 
0.000000 
0.000000 
0.018132 
0.031657 
0.031617 
0.020200 
0.015183 
0.017443 
0.020280 
0.030130 
0.040354 
0.043242 
0.026126 
0.014516 
0.014760 
0.018936 
0.019279 
0.019031 
0.010806 
0.005435 
0.012413 
0.024809 
0.030874 
0.028391 
0.029344 
0.028073 
0.024409 
0.023992 
0.020058 
0.018970 
0.027676 
0.034856 
0.027552 
0.016940 
0.008732 
0.000000 
0.000000 
0.012332 
0.021205 
0.023332 
0.021254 
0.022363 
0.023048 
0.021096 
0.023349 
0.024368 
0.025286 
0.025450 
0.021479 
0.016684 
0.015539 
0.014419 
0.011310 
0.012761 
0.016040 
0.014688 
0.009737 
0.010761 
0.019897 
0.029971 
0.033474 
0.026126 
0.017447 
0.020210 
0.030773 
0.035880 
0.048218 
0.054708 
0.052915 
0.041585 
0.040427 
0.038065 
0.034978 
0.023086 
0.015959 
0.020573 
0.029404 
0.027166 
0.021228 
0.022091 
0.023081 
0.024649 
0.031340 
0.027806 
0.019538 
0.021088 
0.029616 
0.033982 
0.034167 
0.023962 
0.015833 
0.007512 
0.000000 
0.007794 
0.020320 
0.032252 
0.038811 
0.040053 
0.038289 
0.010846 
0.009433 
0.010250 
0.021774 
0.037538 
0.038254 
0.025810 
0.022648 
0.026761 
0.025194 
0.030324 
0.039529 
0.043544 
0.027958 
0.016580 
0.013827 
0.014650 
0.013903 
0.011890 
0.005358 
0.000000 
0.010486 
0.024492 
0.034983 
0.032687 
0.028715 
0.023882 
0.019593 
0.020940 
0.019562 
0.017141 
0.022645 
0.028534 
0.022547 
0.017326 
0.014571 
0.008429 
0.007910 
0.016914 
0.028210 
0.031900 
0.030790 
0.030031 
0.025628 
0.022043 
0.021711 
0.018486 
0.019457 
0.023611 
0.021610 
0.022297 
0.024920 
0.023880 
0.015647 
0.012206 
0.013639 
0.014943 
0.009324 
0.006630 
0.011354 
0.021465 
0.028882 
0.025853 
0.017427 
0.018512 
0.027141 
0.029848 
0.038963 
0.045681 
0.046185 
0.039334 
0.039102 
0.030499 
0.024933 
0.019309 
0.014574 
0.018887 
0.027631 
0.024490 
0.016576 
0.016379 
0.020819 
0.023794 
0.029716 
0.024696 
0.015697 
0.015694 
0.021794 
0.021181 
0.018014 
0.009191 
0.000000 
0.000000 
0.000000 
0.000000 
0.013550 
0.027026 
0.035834 
0.036956 
0.032155 
0.023330 
0.020901 
0.018870 
0.024951 
0.036633 
0.036968 
0.027381 
0.027311 
0.031532 
0.030323 
0.035147 
0.043080 
0.046349 
0.034477 
0.026478 
0.020824 
0.016405 
0.014207 
0.008857 
0.000000 
0.000000 
0.009778 
0.022529 
0.035267 
0.037026 
0.033442 
0.026797 
0.022475 
0.026528 
0.027003 
0.021439 
0.022416 
0.024494 
0.023054 
0.025419 
0.026092 
0.016826 
0.014276 
0.023531 
0.035989 
0.042276 
0.039707 
0.035250 
0.030764 
0.031528 
0.030928 
0.021759 
0.019322 
0.024137 
0.024245 
0.029745 
0.034654 
0.031516 
0.020540 
0.014963 
0.011770 
0.010299 
0.004769 
0.000000 
0.000000 
0.009037 
0.016366 
0.016875 
0.011846 
0.012340 
0.018239 
0.021332 
0.028662 
0.032614 
0.034028 
0.031354 
0.032232 
0.023518 
0.020098 
0.020909 
0.016321 
0.016950 
0.021575 
0.020791 
0.013405 
0.010771 
0.012997 
0.015831 
0.021438 
0.019643 
0.012525 
0.011494 
0.015776 
0.015112 
0.010925 
0.000000 
0.000000 
0.000000 
0.000000 
0.000000 
0.012421 
0.025029 
0.029400 
0.028217 
0.021818 
0.028403 
0.029186 
0.028571 
0.027140 
0.027302 
0.025596 
0.021904 
0.025089 
0.027606 
0.028088 
0.029259 
0.034729 
0.042185 
0.041971 
0.041390 
0.033001 
0.023721 
0.020346 
0.012852 
0.008417 
0.010283 
0.013891 
0.021477 
0.029293 
0.034762 
0.039265 
0.032556 
0.023706 
0.024863 
0.027886 
0.024681 
0.027216 
0.029163 
0.029758 
0.032194 
0.029988 
0.019063 
0.017099 
0.026969 
0.036615 
0.039721 
0.036485 
0.037070 
0.039724 
0.043077 
0.038226 
0.026132 
0.022923 
0.027363 
0.023953 
0.027203 
0.035155 
0.035878 
0.025451 
0.019218 
0.012461 
0.007916 
0.000000 
0.000000 
0.000000 
0.000000 
0.009320 
0.012982 
0.010308 
0.011012 
0.014957 
0.015025 
0.018530 
0.022938 
0.026960 
0.025971 
0.025372 
0.018328 
0.017873 
0.022838 
0.020107 
0.019464 
0.017001 
0.013855 
0.009344 
0.008123 
0.008912 
0.012963 
0.020734 
0.021366 
0.014212 
0.013171 
0.019563 
0.022413 
0.018722 
0.012526 
0.011285 
0.007509 
0.000000 
0.000000 
0.011950 
0.022462 
0.025005 
0.023980 
0.017894 
0.024441 
0.029791 
0.037279 
0.032610 
0.024149 
0.020072 
0.016559 
0.018591 
0.023351 
0.029381 
0.027426 
0.027967 
0.035631 
0.043586 
0.045340 
0.033468 
0.023616 
0.021325 
0.015126 
0.013634 
0.018098 
0.020711 
0.025351 
0.028050 
0.031368 
0.037369 
0.029810 
0.022172 
0.024856 
0.031373 
0.027237 
0.028988 
0.032814 
0.031243 
0.026104 
0.019400 
0.010576 
0.009257 
0.014422 
0.018843 
0.020219 
0.021837 
0.030268 
0.041154 
0.042612 
0.034535 
0.026377 
0.024190 
0.025970 
0.020168 
0.021546 
0.030531 
0.032059 
0.021655 
0.015315 
0.011788 
0.010738 
0.005346 
0.000000 
0.000000 
0.005075 
0.010729 
0.015570 
0.013783 
0.015609 
0.018893 
0.014750 
0.014434 
0.018785 
0.022545 
0.024771 
0.024522 
0.019145 
0.022122 
0.031786 
0.030767 
0.030503 
0.021145 
0.013000 
0.010886 
0.013021 
0.012092 
0.015309 
0.022946 
0.021498 
0.014992 
0.016844 
0.028505 
0.035911 
0.031120 
0.024152 
0.024055 
0.019725 
0.013032 
0.011485 
0.016956 
0.024295 
0.024368 
0.020564 
0.016335 
0.020639 
0.027632 
0.038277 
0.030888 
0.022017 
0.020551 
0.016987 
0.016258 
0.020990 
0.030916 
0.032692 
0.031628 
0.034863 
0.040269 
0.040515 
0.030990 
0.025712 
0.025790 
0.019393 
0.015908 
0.018052 
0.020991 
0.023708 
0.025829 
0.026372 
0.030214 
0.025403 
0.023676 
0.028271 
0.034803 
0.028803 
0.028229 
0.028965 
0.023698 
0.016726 
0.009628 
0.000000 
0.000000 
0.000000 
0.000000 
0.000000 
0.008806 
0.020608 
0.032809 
0.032323 
0.027912 
0.026532 
0.024129 
0.019954 
0.013069 
0.012201 
0.017722 
0.019302 
0.013260 
0.010802 
0.013116 
0.016844 
0.012040 
0.007804 
0.007526 
0.010718 
0.012213 
0.014841 
0.015125 
0.019347 
0.021136 
0.015271 
0.014370 
0.018835 
0.020624 
0.023213 
0.021948 
0.019895 
0.026199 
0.038668 
0.038023 
0.038658 
0.028048 
0.017681 
0.017704 
0.023150 
0.019348 
0.018600 
0.024385 
0.022662 
0.015950 
0.015355 
0.024651 
0.032913 
0.028826 
0.025731 
0.029589 
0.029331 
0.025345 
0.023119 
0.023520 