# vtk DataFile Version 3.0
results.vtk
ASCII
DATASET RECTILINEAR_GRID
DIMENSIONS 100 100 1
X_COORDINATES 100 double
0.000000 0.010000 0.020000 0.030000 0.040000 0.050000 0.060000 0.070000 0.080000 0.090000 0.100000 0.110000 0.120000 0.130000 0.140000 0.150000 0.160000 0.170000 0.180000 0.190000 0.200000 0.210000 0.220000 0.230000 0.240000 0.250000 0.260000 0.270000 0.280000 0.290000 0.300000 0.310000 0.320000 0.330000 0.340000 0.350000 0.360000 0.370000 0.380000 0.390000 0.400000 0.410000 0.420000 0.430000 0.440000 0.450000 0.460000 0.470000 0.480000 0.490000 0.500000 0.510000 0.520000 0.530000 0.540000 0.550000 0.560000 0.570000 0.580000 0.590000 0.600000 0.610000 0.620000 0.630000 0.640000 0.650000 0.660000 0.670000 0.680000 0.690000 0.700000 0.710000 0.720000 0.730000 0.740000 0.750000 0.760000 0.770000 0.780000 0.790000 0.800000 0.810000 0.820000 0.830000 0.840000 0.850000 0.860000 0.870000 0.880000 0.890000 0.900000 0.910000 0.920000 0.930000 0.940000 0.950000 0.960000 0.970000 0.980000 0.990000 
Y_COORDINATES 100 double
0.000000 0.010000 0.020000 0.030000 0.040000 0.050000 0.060000 0.070000 0.080000 0.090000 0.100000 0.110000 0.120000 0.130000 0.140000 0.150000 0.160000 0.170000 0.180000 0.190000 0.200000 0.210000 0.220000 0.230000 0.240000 0.250000 0.260000 0.270000 0.280000 0.290000 0.300000 0.310000 0.320000 0.330000 0.340000 0.350000 0.360000 0.370000 0.380000 0.390000 0.400000 0.410000 0.420000 0.430000 0.440000 0.450000 0.460000 0.470000 0.480000 0.490000 0.500000 0.510000 0.520000 0.530000 0.540000 0.550000 0.560000 0.570000 0.580000 0.590000 0.600000 0.610000 0.620000 0.630000 0.640000 0.650000 0.660000 0.670000 0.680000 0.690000 0.700000 0.710000 0.720000 0.730000 0.740000 0.750000 0.760000 0.770000 0.780000 0.790000 0.800000 0.810000 0.820000 0.830000 0.840000 0.850000 0.860000 0.870000 0.880000 0.890000 0.900000 0.910000 0.920000 0.930000 0.940000 0.950000 0.960000 0.970000 0.980000 0.990000 
Z_COORDINATES 1 double
0
POINT_DATA 10000 
FIELD FieldData 1 
Concentração 1 10000 double 
0.007649 
0.007452 
0.006789 
0.006045 
0.005528 
0.005114 
0.004979 
0.004832 
0.004522 
0.004477 
0.004960 
0.005298 
0.004905 
0.004529 
0.004956 
0.005787 
0.006155 
0.005819 
0.005331 
0.005244 
0.005643 
0.006103 
0.006148 
0.005996 
0.005725 
0.005149 
0.004388 
0.003956 
0.003885 
0.003840 
0.004032 
0.004602 
0.004928 
0.004569 
0.003921 
0.003712 
0.003748 
0.003394 
0.002893 
0.002891 
0.003457 
0.004163 
0.004466 
0.003807 
0.002140 
0.000000 
0.001387 
0.002847 
0.004383 
0.005796 
0.006443 
0.005649 
0.003882 
0.001885 
0.000000 
0.000000 
0.000000 
0.003945 
0.006655 
0.007681 
0.007178 
0.006246 
0.005414 
0.004969 
0.004623 
0.004299 
0.004305 
0.004453 
0.004239 
0.003772 
0.003107 
0.002546 
0.002219 
0.002214 
0.002402 
0.002539 
0.002148 
0.001180 
0.000000 
0.000000 
0.001677 
0.002980 
0.004284 
0.005351 
0.005894 
0.005671 
0.004856 
0.004220 
0.004027 
0.004272 
0.004597 
0.004407 
0.003499 
0.002688 
0.002560 
0.003041 
0.003442 
0.002989 
0.001891 
0.000000 
0.007307 
0.007111 
0.006479 
0.005752 
0.005178 
0.004716 
0.004577 
0.004516 
0.004399 
0.004570 
0.005142 
0.005381 
0.004802 
0.004301 
0.004707 
0.005628 
0.006120 
0.005806 
0.005201 
0.004993 
0.005331 
0.005792 
0.005953 
0.005953 
0.005753 
0.005254 
0.004593 
0.004178 
0.004030 
0.003877 
0.003940 
0.004410 
0.004730 
0.004457 
0.003918 
0.003751 
0.003731 
0.003325 
0.002843 
0.002854 
0.003381 
0.004055 
0.004358 
0.003761 
0.002189 
0.000000 
0.001420 
0.002704 
0.004038 
0.005374 
0.006113 
0.005486 
0.003828 
0.001890 
0.000000 
0.000000 
0.001634 
0.004405 
0.006777 
0.007593 
0.006949 
0.005930 
0.005107 
0.004745 
0.004567 
0.004443 
0.004532 
0.004631 
0.004350 
0.003881 
0.003279 
0.002790 
0.002490 
0.002480 
0.002641 
0.002711 
0.002214 
0.001189 
0.000000 
0.000758 
0.001902 
0.003047 
0.004276 
0.005268 
0.005674 
0.005382 
0.004687 
0.004253 
0.004172 
0.004315 
0.004428 
0.004171 
0.003419 
0.002791 
0.002684 
0.003043 
0.003352 
0.002980 
0.002192 
0.001347 
0.006365 
0.006200 
0.005709 
0.005098 
0.004419 
0.003813 
0.003653 
0.003857 
0.004266 
0.004914 
0.005581 
0.005536 
0.004583 
0.003867 
0.004237 
0.005303 
0.006028 
0.005797 
0.005016 
0.004565 
0.004742 
0.005195 
0.005594 
0.005869 
0.005767 
0.005435 
0.005017 
0.004609 
0.004212 
0.003749 
0.003506 
0.003786 
0.004164 
0.004158 
0.003921 
0.003883 
0.003775 
0.003303 
0.002892 
0.002896 
0.003231 
0.003710 
0.003966 
0.003581 
0.002507 
0.001502 
0.001736 
0.002391 
0.003220 
0.004396 
0.005318 
0.005102 
0.003792 
0.002036 
0.000000 
0.000000 
0.002159 
0.004688 
0.006687 
0.007134 
0.006287 
0.005157 
0.004367 
0.004158 
0.004355 
0.004699 
0.004948 
0.004877 
0.004421 
0.003950 
0.003508 
0.003181 
0.002921 
0.002892 
0.003034 
0.003042 
0.002406 
0.001283 
0.000000 
0.001020 
0.001998 
0.002942 
0.004026 
0.004892 
0.005086 
0.004781 
0.004478 
0.004570 
0.004728 
0.004600 
0.004223 
0.003822 
0.003423 
0.003191 
0.003105 
0.003163 
0.003214 
0.002885 
0.002362 
0.001885 
0.005198 
0.005139 
0.004955 
0.004643 
0.003986 
0.003264 
0.003115 
0.003683 
0.004676 
0.005659 
0.006130 
0.005615 
0.004312 
0.003435 
0.003683 
0.004653 
0.005447 
0.005416 
0.004756 
0.004253 
0.004314 
0.004780 
0.005356 
0.005752 
0.005605 
0.005353 
0.005156 
0.004753 
0.004092 
0.003307 
0.002842 
0.003169 
0.003801 
0.004137 
0.004149 
0.004174 
0.003983 
0.003518 
0.003208 
0.003118 
0.003109 
0.003270 
0.003501 
0.003415 
0.002769 
0.002110 
0.001889 
0.001894 
0.001999 
0.003175 
0.004271 
0.004532 
0.003823 
0.002562 
0.001074 
0.000000 
0.002089 
0.004328 
0.005920 
0.006140 
0.005376 
0.004397 
0.003769 
0.003706 
0.004201 
0.004934 
0.005277 
0.004983 
0.004322 
0.003823 
0.003503 
0.003265 
0.002965 
0.002849 
0.003005 
0.003112 
0.002593 
0.001542 
0.000000 
0.001134 
0.001864 
0.002581 
0.003549 
0.004414 
0.004634 
0.004516 
0.004665 
0.005223 
0.005507 
0.005059 
0.004285 
0.003852 
0.003806 
0.003871 
0.003735 
0.003509 
0.003299 
0.002870 
0.002403 
0.002056 
0.004172 
0.004220 
0.004356 
0.004434 
0.004038 
0.003409 
0.003382 
0.004299 
0.005688 
0.006715 
0.006751 
0.005712 
0.004165 
0.003233 
0.003321 
0.003972 
0.004612 
0.004845 
0.004622 
0.004332 
0.004364 
0.004796 
0.005372 
0.005673 
0.005320 
0.004895 
0.004631 
0.004185 
0.003453 
0.002559 
0.001934 
0.002688 
0.003664 
0.004236 
0.004314 
0.004295 
0.004109 
0.003835 
0.003730 
0.003559 
0.003231 
0.003107 
0.003347 
0.003548 
0.003267 
0.002812 
0.002325 
0.001632 
0.000000 
0.002163 
0.003401 
0.003990 
0.003885 
0.003092 
0.001660 
0.000000 
0.001386 
0.003125 
0.004339 
0.004630 
0.004288 
0.003734 
0.003391 
0.003430 
0.003983 
0.004843 
0.005292 
0.004977 
0.004214 
0.003641 
0.003368 
0.003160 
0.002799 
0.002562 
0.002721 
0.003032 
0.002901 
0.002335 
0.001699 
0.001731 
0.001942 
0.002386 
0.003257 
0.004225 
0.004692 
0.004844 
0.005222 
0.005860 
0.006029 
0.005363 
0.004515 
0.004255 
0.004443 
0.004531 
0.004234 
0.003864 
0.003578 
0.003122 
0.002710 
0.002470 
0.003882 
0.003950 
0.004180 
0.004451 
0.004361 
0.003986 
0.004151 
0.005259 
0.006685 
0.007485 
0.007108 
0.005759 
0.004157 
0.003268 
0.003257 
0.003636 
0.004105 
0.004556 
0.004764 
0.004738 
0.004797 
0.005143 
0.005617 
0.005793 
0.005278 
0.004533 
0.003895 
0.003274 
0.002581 
0.001671 
0.000000 
0.002068 
0.003250 
0.003866 
0.004002 
0.004073 
0.004102 
0.004191 
0.004408 
0.004281 
0.003770 
0.003437 
0.003651 
0.004016 
0.004015 
0.003810 
0.003358 
0.002667 
0.001956 
0.002336 
0.002964 
0.003543 
0.003864 
0.003489 
0.002131 
0.000000 
0.000000 
0.001441 
0.002299 
0.002906 
0.003135 
0.003071 
0.003014 
0.003135 
0.003600 
0.004414 
0.005034 
0.004988 
0.004341 
0.003701 
0.003351 
0.003070 
0.002670 
0.002373 
0.002565 
0.003071 
0.003296 
0.003086 
0.002669 
0.002379 
0.002338 
0.002607 
0.003364 
0.004375 
0.005062 
0.005430 
0.005871 
0.006328 
0.006202 
0.005358 
0.004620 
0.004655 
0.005073 
0.005130 
0.004640 
0.004119 
0.003804 
0.003472 
0.003296 
0.003257 
0.004343 
0.004384 
0.004508 
0.004648 
0.004617 
0.004467 
0.004832 
0.005999 
0.007225 
0.007665 
0.007020 
0.005627 
0.004123 
0.003277 
0.003138 
0.003335 
0.003706 
0.004277 
0.004779 
0.005081 
0.005385 
0.005749 
0.006151 
0.006359 
0.005929 
0.004959 
0.003862 
0.002983 
0.002394 
0.001978 
0.001671 
0.002300 
0.002853 
0.003164 
0.003258 
0.003418 
0.003687 
0.004118 
0.004650 
0.004700 
0.004193 
0.003759 
0.003891 
0.004273 
0.004497 
0.004621 
0.004419 
0.003814 
0.003011 
0.002507 
0.002449 
0.002870 
0.003558 
0.003727 
0.002852 
0.001358 
0.000000 
0.000000 
0.000000 
0.001253 
0.002116 
0.002537 
0.002721 
0.002899 
0.003250 
0.003900 
0.004553 
0.004840 
0.004554 
0.003990 
0.003496 
0.003020 
0.002519 
0.002157 
0.002410 
0.003024 
0.003456 
0.003469 
0.003124 
0.002793 
0.002768 
0.003031 
0.003648 
0.004476 
0.005126 
0.005587 
0.006134 
0.006536 
0.006253 
0.005303 
0.004590 
0.004765 
0.005393 
0.005568 
0.005036 
0.004356 
0.003903 
0.003625 
0.003631 
0.003736 
0.004726 
0.004787 
0.004825 
0.004689 
0.004449 
0.004340 
0.004801 
0.005963 
0.007034 
0.007260 
0.006594 
0.005408 
0.004140 
0.003314 
0.002927 
0.002869 
0.003121 
0.003728 
0.004475 
0.005189 
0.005875 
0.006325 
0.006718 
0.007154 
0.007037 
0.006030 
0.004617 
0.003546 
0.003027 
0.002875 
0.002775 
0.002836 
0.002855 
0.002822 
0.002725 
0.002722 
0.002951 
0.003484 
0.004155 
0.004345 
0.003924 
0.003493 
0.003567 
0.003985 
0.004496 
0.004984 
0.005078 
0.004599 
0.003591 
0.002433 
0.001621 
0.001841 
0.003003 
0.003777 
0.003541 
0.002542 
0.001348 
0.000000 
0.000000 
0.000000 
0.001572 
0.002429 
0.002742 
0.002914 
0.003229 
0.003715 
0.004178 
0.004598 
0.004715 
0.004337 
0.003675 
0.002889 
0.002125 
0.001511 
0.002065 
0.002802 
0.003368 
0.003557 
0.003269 
0.002966 
0.003057 
0.003475 
0.004053 
0.004610 
0.004986 
0.005329 
0.005929 
0.006415 
0.006232 
0.005402 
0.004723 
0.004873 
0.005571 
0.005873 
0.005408 
0.004664 
0.004020 
0.003543 
0.003348 
0.003309 
0.004502 
0.004596 
0.004607 
0.004263 
0.003785 
0.003605 
0.004083 
0.005275 
0.006411 
0.006685 
0.006186 
0.005291 
0.004299 
0.003543 
0.002956 
0.002661 
0.002743 
0.003223 
0.003998 
0.004911 
0.005821 
0.006347 
0.006814 
0.007511 
0.007682 
0.006755 
0.005326 
0.004305 
0.003961 
0.004018 
0.003912 
0.003662 
0.003402 
0.003184 
0.002876 
0.002555 
0.002530 
0.002960 
0.003577 
0.003747 
0.003322 
0.002818 
0.002787 
0.003344 
0.004218 
0.005015 
0.005299 
0.004882 
0.003714 
0.002057 
0.000000 
0.000000 
0.002395 
0.003742 
0.004164 
0.003748 
0.002840 
0.001514 
0.000000 
0.000000 
0.001630 
0.002780 
0.003225 
0.003435 
0.003794 
0.004098 
0.004173 
0.004463 
0.004884 
0.004828 
0.004148 
0.003087 
0.001893 
0.000000 
0.001958 
0.002863 
0.003345 
0.003538 
0.003337 
0.003105 
0.003243 
0.003743 
0.004293 
0.004623 
0.004708 
0.004842 
0.005391 
0.005989 
0.006078 
0.005576 
0.005004 
0.004975 
0.005420 
0.005588 
0.005185 
0.004621 
0.004090 
0.003556 
0.003086 
0.002775 
0.004131 
0.004190 
0.004087 
0.003604 
0.003055 
0.002841 
0.003231 
0.004317 
0.005497 
0.005935 
0.005729 
0.005173 
0.004480 
0.003909 
0.003355 
0.003037 
0.003009 
0.003253 
0.003761 
0.004439 
0.005219 
0.005770 
0.006368 
0.007235 
0.007532 
0.006731 
0.005513 
0.004715 
0.004662 
0.005057 
0.005152 
0.004820 
0.004359 
0.003947 
0.003460 
0.002899 
0.002613 
0.002817 
0.003182 
0.003176 
0.002705 
0.002068 
0.001774 
0.002560 
0.003804 
0.004820 
0.005233 
0.004923 
0.003805 
0.002127 
0.000000 
0.001150 
0.002611 
0.003805 
0.004543 
0.004667 
0.004133 
0.002841 
0.001214 
0.000000 
0.001655 
0.003113 
0.003927 
0.004400 
0.004852 
0.004891 
0.004474 
0.004501 
0.005112 
0.005446 
0.004968 
0.003936 
0.002976 
0.002560 
0.003339 
0.003771 
0.003757 
0.003663 
0.003510 
0.003350 
0.003372 
0.003694 
0.004141 
0.004408 
0.004422 
0.004393 
0.004827 
0.005530 
0.005914 
0.005716 
0.005254 
0.005028 
0.005049 
0.004861 
0.004425 
0.004152 
0.004058 
0.003849 
0.003351 
0.002841 
0.004025 
0.003997 
0.003757 
0.003271 
0.002850 
0.002577 
0.002639 
0.003318 
0.004466 
0.005112 
0.005164 
0.004873 
0.004459 
0.004192 
0.003918 
0.003797 
0.003773 
0.003817 
0.003905 
0.004024 
0.004383 
0.004837 
0.005505 
0.006425 
0.006834 
0.006346 
0.005538 
0.005052 
0.005285 
0.006052 
0.006526 
0.006182 
0.005309 
0.004507 
0.003909 
0.003355 
0.002960 
0.002901 
0.002853 
0.002513 
0.002008 
0.001213 
0.000000 
0.001398 
0.003131 
0.004213 
0.004661 
0.004566 
0.003806 
0.002644 
0.001743 
0.002152 
0.003064 
0.003835 
0.004433 
0.004810 
0.004608 
0.003403 
0.001595 
0.000000 
0.001283 
0.003211 
0.004738 
0.005758 
0.006382 
0.006132 
0.005197 
0.004911 
0.005561 
0.006158 
0.005960 
0.005160 
0.004471 
0.004530 
0.005204 
0.005257 
0.004651 
0.004100 
0.003885 
0.003853 
0.003860 
0.004007 
0.004381 
0.004683 
0.004716 
0.004497 
0.004723 
0.005373 
0.005831 
0.005707 
0.005303 
0.005044 
0.004819 
0.004404 
0.004010 
0.004072 
0.004437 
0.004570 
0.004081 
0.003393 
0.004938 
0.004834 
0.004539 
0.004133 
0.003819 
0.003096 
0.002373 
0.002238 
0.003931 
0.005106 
0.005158 
0.004618 
0.003993 
0.003875 
0.004011 
0.004300 
0.004594 
0.004837 
0.004692 
0.004299 
0.004313 
0.004633 
0.005213 
0.005965 
0.006336 
0.006154 
0.005749 
0.005571 
0.006040 
0.007138 
0.008088 
0.007729 
0.006224 
0.004963 
0.004393 
0.004017 
0.003619 
0.003365 
0.002789 
0.001609 
0.001125 
0.000620 
0.000000 
0.000000 
0.003171 
0.004063 
0.004161 
0.004082 
0.003669 
0.003031 
0.002730 
0.003264 
0.003985 
0.004181 
0.004220 
0.004525 
0.004590 
0.003424 
0.001264 
0.000000 
0.000000 
0.003432 
0.006147 
0.007934 
0.008800 
0.008318 
0.006769 
0.006115 
0.006787 
0.007729 
0.007966 
0.007478 
0.006882 
0.006810 
0.007277 
0.006914 
0.005900 
0.004962 
0.004610 
0.004907 
0.005290 
0.005474 
0.005911 
0.006289 
0.006304 
0.005834 
0.005880 
0.006243 
0.006286 
0.005817 
0.005302 
0.005137 
0.004954 
0.004639 
0.004605 
0.005213 
0.005911 
0.005990 
0.005222 
0.004200 
0.009136 
0.008888 
0.008391 
0.007836 
0.007390 
0.005130 
0.002688 
0.000000 
0.005276 
0.007828 
0.007050 
0.005005 
0.002777 
0.002542 
0.003347 
0.004442 
0.005906 
0.007435 
0.007552 
0.006762 
0.006815 
0.007157 
0.007683 
0.008008 
0.007625 
0.007110 
0.006580 
0.006485 
0.007233 
0.008922 
0.010922 
0.010662 
0.008095 
0.006291 
0.005930 
0.005856 
0.005507 
0.005395 
0.004258 
0.000000 
0.000000 
0.000000 
0.000000 
0.004651 
0.006513 
0.005777 
0.004651 
0.004287 
0.004115 
0.003930 
0.004430 
0.005957 
0.006898 
0.006169 
0.005201 
0.005483 
0.006228 
0.004757 
0.000000 
0.000000 
0.000000 
0.005216 
0.009795 
0.012738 
0.013990 
0.013214 
0.010396 
0.009180 
0.010163 
0.012132 
0.013367 
0.013373 
0.012476 
0.011245 
0.011012 
0.009980 
0.008951 
0.007922 
0.007347 
0.008318 
0.009481 
0.009700 
0.010481 
0.011290 
0.011318 
0.010251 
0.010303 
0.010288 
0.009316 
0.007645 
0.006069 
0.005537 
0.005521 
0.005870 
0.007092 
0.009239 
0.010600 
0.010152 
0.008414 
0.006383 
0.021666 
0.020985 
0.019600 
0.018395 
0.018077 
0.011516 
0.006161 
0.006584 
0.013521 
0.018688 
0.014776 
0.008520 
0.000000 
0.000000 
0.002697 
0.005232 
0.009750 
0.015293 
0.016681 
0.015242 
0.016466 
0.017375 
0.018313 
0.017900 
0.014682 
0.012208 
0.010158 
0.009706 
0.011282 
0.014687 
0.019882 
0.019884 
0.014304 
0.011528 
0.012103 
0.012836 
0.012458 
0.013537 
0.013030 
0.010425 
0.010131 
0.011640 
0.013046 
0.016156 
0.016679 
0.011853 
0.008021 
0.007575 
0.007688 
0.007421 
0.009263 
0.013868 
0.015835 
0.012930 
0.009585 
0.010260 
0.013619 
0.012336 
0.006361 
0.000000 
0.004494 
0.010901 
0.019792 
0.025711 
0.028497 
0.027325 
0.020524 
0.018029 
0.019961 
0.024433 
0.027705 
0.028720 
0.027103 
0.022811 
0.021858 
0.019592 
0.019318 
0.018427 
0.016653 
0.019033 
0.021842 
0.021522 
0.023582 
0.026226 
0.026282 
0.022717 
0.023204 
0.023102 
0.020472 
0.015750 
0.010366 
0.008189 
0.008558 
0.010862 
0.015528 
0.022131 
0.025331 
0.023170 
0.018230 
0.012761 
0.024872 
0.024418 
0.021918 
0.021390 
0.021304 
0.013489 
0.008181 
0.011055 
0.019959 
0.024604 
0.019409 
0.013513 
0.005962 
0.000000 
0.000000 
0.000000 
0.006311 
0.014592 
0.020217 
0.022311 
0.027264 
0.029654 
0.030706 
0.029253 
0.022219 
0.016811 
0.011650 
0.010022 
0.011634 
0.013404 
0.017001 
0.017439 
0.014874 
0.015984 
0.018534 
0.019746 
0.019579 
0.021598 
0.022562 
0.021655 
0.022211 
0.024505 
0.025150 
0.024482 
0.020799 
0.013624 
0.010710 
0.012909 
0.013626 
0.011180 
0.012296 
0.017303 
0.018360 
0.016187 
0.012440 
0.011557 
0.015093 
0.016493 
0.012509 
0.009629 
0.008857 
0.010516 
0.016288 
0.022444 
0.027448 
0.027349 
0.021842 
0.020784 
0.021532 
0.022464 
0.023420 
0.025208 
0.025442 
0.022470 
0.023269 
0.023898 
0.027646 
0.029240 
0.025550 
0.025581 
0.026693 
0.025557 
0.027451 
0.031930 
0.030832 
0.025512 
0.025356 
0.025948 
0.026234 
0.021941 
0.013286 
0.008837 
0.010465 
0.016510 
0.024361 
0.032296 
0.033975 
0.028905 
0.020573 
0.014528 
0.025132 
0.025052 
0.023030 
0.024318 
0.023101 
0.014536 
0.010288 
0.015596 
0.025936 
0.028725 
0.023600 
0.019593 
0.011759 
0.006702 
0.005690 
0.003183 
0.000000 
0.010929 
0.019264 
0.024374 
0.031858 
0.036301 
0.036698 
0.035655 
0.029198 
0.023478 
0.015400 
0.012185 
0.013606 
0.014330 
0.017171 
0.018030 
0.017143 
0.020113 
0.022210 
0.022018 
0.021895 
0.022432 
0.024660 
0.027477 
0.029569 
0.031893 
0.031667 
0.026712 
0.020755 
0.014105 
0.013856 
0.019449 
0.021071 
0.015292 
0.013474 
0.017214 
0.019091 
0.020847 
0.018408 
0.014558 
0.015552 
0.017389 
0.015691 
0.015743 
0.014076 
0.011537 
0.013000 
0.016556 
0.019723 
0.018834 
0.015838 
0.017214 
0.019987 
0.019951 
0.018485 
0.018903 
0.018738 
0.019293 
0.024197 
0.027029 
0.031159 
0.033859 
0.029245 
0.026598 
0.027462 
0.026201 
0.026194 
0.029763 
0.028299 
0.025475 
0.026701 
0.027046 
0.028081 
0.024709 
0.015424 
0.010629 
0.013801 
0.021699 
0.029481 
0.036171 
0.037348 
0.030897 
0.022226 
0.018555 
0.032012 
0.031827 
0.030214 
0.033508 
0.030210 
0.018875 
0.013640 
0.019009 
0.028783 
0.030862 
0.024930 
0.020689 
0.013232 
0.009283 
0.009051 
0.005847 
0.004113 
0.010879 
0.019125 
0.023636 
0.028967 
0.034955 
0.036805 
0.036437 
0.032147 
0.026007 
0.016634 
0.012452 
0.013004 
0.015116 
0.020018 
0.021534 
0.018477 
0.018516 
0.019702 
0.021955 
0.024869 
0.024027 
0.024733 
0.026401 
0.027482 
0.030551 
0.030452 
0.023451 
0.016563 
0.011922 
0.013087 
0.018358 
0.020581 
0.015199 
0.013038 
0.016337 
0.019109 
0.024294 
0.025102 
0.020320 
0.019180 
0.018508 
0.015511 
0.016315 
0.017343 
0.015399 
0.016911 
0.019822 
0.020838 
0.017043 
0.012852 
0.012661 
0.015902 
0.018254 
0.017554 
0.016854 
0.015123 
0.017818 
0.025994 
0.030552 
0.033221 
0.033661 
0.028531 
0.023681 
0.023095 
0.021497 
0.022300 
0.026921 
0.028672 
0.030331 
0.033212 
0.033930 
0.034664 
0.031872 
0.021548 
0.014898 
0.015850 
0.019168 
0.022397 
0.027671 
0.032492 
0.030830 
0.026132 
0.025861 
0.036332 
0.035398 
0.033931 
0.038140 
0.033563 
0.022649 
0.018140 
0.021784 
0.026548 
0.026509 
0.020514 
0.016042 
0.009907 
0.005755 
0.005398 
0.003118 
0.000000 
0.010139 
0.017832 
0.021381 
0.024234 
0.030836 
0.034557 
0.033641 
0.031292 
0.024636 
0.016928 
0.014797 
0.014649 
0.015709 
0.019687 
0.022848 
0.020767 
0.019854 
0.020396 
0.023559 
0.027189 
0.026886 
0.026523 
0.024947 
0.022424 
0.024349 
0.025780 
0.021556 
0.016326 
0.013845 
0.015026 
0.017017 
0.017314 
0.012946 
0.010254 
0.012175 
0.016017 
0.023364 
0.026594 
0.023421 
0.021091 
0.016393 
0.011908 
0.013102 
0.016928 
0.018345 
0.023171 
0.028635 
0.030887 
0.025125 
0.017488 
0.012429 
0.012321 
0.014645 
0.015206 
0.013644 
0.012866 
0.018830 
0.029334 
0.032946 
0.032966 
0.028502 
0.023400 
0.020455 
0.020731 
0.020088 
0.023462 
0.029998 
0.035231 
0.041491 
0.046066 
0.044925 
0.041439 
0.038731 
0.029892 
0.022227 
0.020076 
0.018114 
0.015715 
0.018037 
0.024335 
0.027608 
0.027482 
0.028597 
0.032407 
0.031500 
0.031289 
0.036031 
0.032022 
0.026298 
0.025542 
0.027913 
0.026164 
0.021988 
0.018063 
0.015659 
0.009820 
0.000000 
0.000000 
0.000000 
0.006515 
0.014137 
0.018758 
0.018239 
0.019000 
0.025193 
0.028750 
0.027510 
0.027227 
0.023376 
0.019862 
0.022295 
0.023799 
0.023172 
0.024431 
0.029380 
0.029406 
0.027840 
0.026317 
0.025270 
0.024568 
0.024099 
0.022812 
0.020341 
0.018502 
0.021770 
0.025226 
0.024640 
0.022407 
0.021913 
0.023067 
0.023494 
0.022283 
0.016932 
0.011103 
0.009533 
0.010949 
0.016444 
0.021399 
0.022272 
0.019886 
0.013172 
0.008952 
0.011210 
0.016410 
0.018477 
0.022249 
0.028530 
0.034983 
0.032293 
0.024523 
0.017303 
0.014685 
0.015429 
0.015362 
0.012516 
0.013079 
0.021275 
0.032019 
0.033916 
0.031465 
0.025067 
0.022007 
0.020846 
0.020504 
0.020356 
0.023937 
0.028345 
0.032831 
0.042216 
0.050714 
0.050527 
0.045567 
0.043579 
0.038044 
0.029529 
0.022594 
0.017862 
0.013738 
0.015975 
0.023781 
0.028847 
0.030131 
0.030700 
0.028578 
0.027683 
0.027914 
0.032991 
0.031217 
0.029952 
0.030207 
0.030311 
0.026267 
0.022097 
0.022887 
0.023630 
0.018481 
0.009812 
0.006925 
0.008900 
0.013528 
0.020608 
0.023027 
0.016772 
0.012666 
0.015091 
0.017736 
0.018301 
0.020112 
0.021032 
0.022074 
0.029218 
0.035081 
0.033555 
0.030512 
0.034773 
0.036227 
0.033063 
0.029082 
0.022089 
0.017169 
0.017493 
0.019402 
0.019372 
0.018374 
0.019912 
0.020848 
0.022150 
0.024872 
0.027419 
0.029109 
0.031727 
0.031950 
0.025382 
0.016194 
0.011706 
0.009937 
0.013319 
0.020124 
0.023858 
0.020545 
0.012244 
0.008057 
0.010575 
0.016172 
0.020066 
0.021637 
0.024259 
0.030148 
0.030187 
0.026211 
0.024448 
0.023689 
0.021522 
0.016764 
0.013244 
0.016076 
0.024748 
0.032032 
0.032038 
0.028724 
0.024388 
0.025228 
0.025953 
0.024971 
0.022529 
0.022020 
0.023293 
0.024868 
0.033365 
0.044829 
0.047981 
0.045438 
0.044109 
0.040943 
0.033603 
0.022079 
0.014710 
0.012649 
0.018409 
0.027071 
0.027874 
0.025065 
0.022875 
0.016895 
0.017119 
0.019879 
0.027048 
0.028486 
0.027071 
0.023461 
0.020904 
0.019265 
0.021096 
0.028630 
0.032406 
0.028578 
0.017432 
0.012060 
0.013632 
0.015832 
0.019988 
0.021433 
0.013663 
0.007192 
0.008704 
0.012444 
0.014798 
0.015635 
0.017852 
0.021934 
0.031095 
0.037967 
0.034752 
0.029336 
0.032773 
0.035698 
0.032320 
0.026275 
0.016493 
0.010224 
0.012933 
0.019115 
0.021677 
0.019563 
0.016497 
0.014547 
0.015929 
0.020272 
0.025533 
0.028884 
0.032178 
0.032682 
0.026670 
0.018261 
0.014238 
0.011139 
0.012934 
0.019317 
0.021824 
0.017000 
0.010145 
0.008803 
0.013709 
0.020525 
0.026081 
0.024287 
0.020652 
0.023245 
0.026944 
0.029201 
0.035852 
0.038694 
0.033812 
0.023218 
0.018947 
0.023026 
0.028805 
0.027835 
0.025005 
0.023933 
0.022849 
0.024902 
0.026845 
0.028564 
0.024911 
0.019723 
0.018110 
0.017872 
0.023400 
0.033962 
0.039703 
0.041288 
0.041570 
0.037510 
0.031442 
0.019151 
0.011545 
0.012772 
0.022301 
0.031544 
0.030056 
0.024527 
0.020021 
0.006367 
0.007055 
0.010522 
0.020055 
0.026622 
0.025604 
0.018170 
0.013580 
0.013878 
0.018837 
0.029311 
0.035831 
0.033903 
0.020772 
0.012630 
0.012778 
0.014651 
0.016270 
0.016583 
0.009408 
0.000000 
0.007654 
0.015053 
0.018949 
0.017895 
0.018913 
0.021220 
0.025597 
0.029311 
0.025760 
0.022834 
0.027941 
0.031751 
0.027752 
0.019496 
0.009715 
0.000000 
0.006237 
0.013844 
0.018905 
0.019014 
0.015338 
0.013637 
0.015070 
0.018345 
0.024239 
0.027815 
0.029145 
0.027784 
0.022945 
0.015991 
0.012458 
0.010009 
0.010480 
0.015088 
0.017682 
0.013759 
0.009069 
0.010389 
0.017554 
0.024355 
0.027801 
0.022583 
0.016190 
0.017553 
0.023860 
0.029765 
0.040586 
0.045514 
0.041159 
0.029913 
0.026884 
0.029813 
0.030865 
0.023104 
0.017565 
0.018733 
0.022132 
0.023861 
0.023553 
0.025011 
0.021948 
0.018167 
0.018470 
0.017337 
0.017725 
0.024501 
0.032500 
0.036954 
0.037203 
0.030521 
0.024212 
0.014026 
0.008143 
0.012187 
0.023430 
0.032986 
0.033976 
0.030306 
0.026021 
0.000000 
0.000000 
0.000000 
0.014674 
0.024668 
0.024741 
0.016805 
0.012960 
0.014358 
0.016924 
0.024298 
0.031721 
0.033058 
0.021063 
0.012372 
0.011943 
0.014489 
0.014927 
0.014293 
0.008425 
0.004373 
0.009825 
0.018872 
0.023703 
0.022474 
0.022700 
0.021742 
0.019672 
0.019404 
0.016750 
0.016035 
0.021950 
0.026674 
0.021744 
0.014014 
0.007410 
0.000000 
0.000000 
0.010114 
0.016940 
0.018749 
0.017398 
0.017762 
0.017992 
0.017091 
0.018762 
0.019604 
0.020324 
0.020352 
0.017413 
0.013933 
0.012837 
0.011719 
0.009569 
0.010557 
0.012671 
0.011556 
0.008093 
0.008864 
0.015429 
0.022846 
0.025634 
0.020658 
0.014591 
0.016408 
0.023756 
0.028460 
0.037425 
0.042376 
0.040830 
0.033012 
0.031383 
0.029570 
0.026858 
0.018648 
0.013567 
0.016568 
0.022400 
0.021260 
0.017396 
0.017740 
0.018404 
0.019545 
0.023568 
0.021138 
0.015915 
0.017329 
0.023392 
0.026621 
0.026271 
0.019031 
0.012476 
0.006127 
0.000000 
0.006413 
0.016215 
0.025458 
0.030421 
0.031160 
0.029657 
0.008492 
0.007701 
0.008643 
0.017404 
0.028331 
0.028943 
0.020678 
0.018157 
0.020581 
0.020313 
0.024453 
0.031113 
0.033361 
0.022606 
0.014112 
0.011640 
0.011858 
0.011234 
0.009360 
0.004298 
0.000000 
0.008555 
0.019002 
0.026620 
0.025673 
0.022920 
0.019326 
0.016287 
0.016912 
0.015893 
0.014410 
0.018207 
0.022007 
0.018186 
0.014290 
0.011654 
0.006995 
0.006735 
0.013618 
0.021877 
0.024975 
0.024274 
0.023382 
0.020456 
0.018113 
0.017643 
0.015422 
0.015929 
0.018476 
0.017384 
0.017832 
0.019467 
0.018348 
0.012693 
0.010141 
0.010798 
0.011135 
0.007298 
0.005528 
0.009097 
0.016519 
0.021703 
0.019599 
0.014015 
0.014820 
0.020812 
0.023781 
0.030537 
0.035442 
0.035706 
0.031078 
0.030075 
0.024271 
0.019992 
0.015651 
0.012273 
0.015177 
0.020876 
0.018975 
0.013638 
0.013239 
0.016071 
0.018528 
0.022417 
0.019129 
0.012985 
0.012869 
0.016978 
0.016975 
0.014432 
0.007564 
0.000000 
0.000000 
0.000000 
0.000000 
0.011018 
0.021234 
0.027634 
0.028498 
0.025413 
0.017708 
0.016336 
0.015440 
0.019961 
0.027752 
0.028002 
0.021739 
0.021400 
0.024080 
0.023854 
0.027334 
0.033039 
0.035283 
0.027474 
0.021346 
0.016842 
0.013423 
0.011387 
0.007201 
0.000000 
0.000000 
0.008187 
0.017823 
0.026831 
0.028522 
0.026255 
0.021458 
0.018163 
0.020358 
0.020622 
0.017272 
0.018078 
0.019648 
0.018780 
0.019875 
0.019573 
0.013308 
0.011759 
0.018547 
0.027555 
0.032045 
0.030499 
0.027611 
0.024790 
0.024918 
0.023839 
0.017670 
0.015925 
0.018949 
0.019279 
0.022879 
0.026318 
0.024179 
0.016511 
0.012057 
0.009544 
0.008023 
0.003791 
0.000000 
0.000000 
0.007212 
0.012817 
0.013292 
0.009945 
0.010380 
0.014588 
0.017242 
0.022484 
0.025789 
0.026912 
0.025101 
0.024920 
0.019006 
0.016305 
0.016281 
0.013357 
0.013897 
0.016801 
0.015871 
0.010844 
0.009002 
0.010556 
0.012966 
0.016913 
0.015587 
0.010571 
0.009781 
0.012776 
0.012527 
0.009120 
0.000000 
0.000000 
0.000000 
0.000000 
0.000000 
0.009860 
0.019258 
0.022979 
0.022233 
0.017999 
0.021990 
0.022540 
0.022467 
0.021729 
0.021810 
0.020444 
0.017732 
0.019574 
0.021666 
0.022439 
0.023622 
0.027649 
0.032742 
0.032758 
0.031607 
0.025355 
0.018661 
0.015576 
0.010248 
0.006842 
0.008100 
0.011383 
0.017279 
0.023259 
0.027299 
0.029912 
0.025126 
0.019176 
0.019857 
0.021819 
0.019807 
0.021338 
0.022899 
0.023291 
0.024391 
0.022316 
0.014929 
0.013567 
0.020344 
0.027407 
0.029958 
0.028325 
0.028892 
0.030943 
0.032829 
0.029136 
0.020928 
0.018436 
0.020927 
0.019102 
0.021553 
0.026987 
0.027172 
0.019814 
0.014712 
0.009903 
0.006359 
0.000000 
0.000000 
0.000000 
0.000000 
0.007521 
0.010280 
0.008671 
0.009277 
0.012049 
0.012460 
0.015084 
0.018441 
0.021206 
0.020791 
0.020041 
0.015262 
0.014861 
0.018041 
0.016436 
0.015810 
0.013922 
0.011260 
0.007951 
0.007037 
0.007708 
0.010796 
0.016140 
0.016366 
0.011575 
0.010998 
0.015564 
0.017686 
0.014923 
0.010136 
0.008862 
0.005989 
0.000000 
0.000000 
0.009679 
0.017534 
0.019748 
0.018748 
0.014689 
0.020325 
0.024003 
0.029006 
0.025739 
0.019794 
0.016584 
0.014012 
0.015408 
0.019028 
0.023336 
0.022685 
0.023555 
0.029088 
0.034561 
0.035362 
0.026948 
0.019601 
0.017211 
0.012591 
0.011192 
0.014112 
0.016473 
0.020078 
0.022610 
0.025340 
0.029124 
0.023954 
0.018645 
0.020471 
0.024762 
0.022249 
0.023370 
0.025788 
0.024534 
0.020773 
0.015557 
0.008818 
0.007743 
0.011466 
0.014926 
0.016245 
0.018057 
0.024387 
0.032149 
0.033306 
0.027673 
0.021611 
0.019667 
0.020320 
0.016501 
0.017605 
0.023777 
0.024719 
0.017431 
0.012489 
0.009763 
0.008614 
0.004392 
0.000000 
0.000000 
0.004161 
0.008625 
0.012060 
0.011223 
0.012643 
0.014787 
0.012184 
0.012150 
0.015372 
0.018243 
0.019839 
0.019455 
0.015947 
0.018244 
0.024983 
0.024676 
0.023991 
0.017298 
0.011159 
0.009346 
0.010663 
0.010241 
0.012679 
0.018001 
0.017128 
0.012589 
0.013876 
0.022082 
0.027404 
0.024194 
0.019310 
0.018800 
0.015643 
0.010760 
0.009673 
0.013883 
0.019162 
0.019522 
0.016877 
0.013914 
0.017800 
0.022719 
0.029855 
0.024765 
0.018154 
0.016492 
0.014087 
0.013750 
0.017336 
0.024425 
0.026369 
0.026077 
0.028567 
0.032329 
0.032271 
0.025618 
0.021471 
0.020766 
0.016091 
0.013392 
0.014723 
0.016894 
0.018937 
0.020521 
0.021261 
0.023783 
0.020758 
0.019635 
0.022984 
0.027261 
0.023464 
0.022946 
0.023197 
0.019309 
0.014005 
0.008220 
0.000000 
0.000000 
0.000000 
0.000000 
0.000000 
0.007519 
0.016839 
0.025832 
0.026048 
0.022859 
0.021264 
0.019362 
0.016198 
0.011219 
0.010557 
0.014483 
0.015603 
0.011286 
0.009313 
0.010774 
0.013052 
0.009733 
0.006547 
0.006293 
0.008662 
0.010103 
0.012076 
0.012548 
0.015517 
0.016668 
0.012640 
0.011854 
0.014822 
0.016449 
0.018331 
0.017797 
0.016811 
0.021589 
0.030335 
0.030371 
0.030132 
0.022452 
0.014869 
0.014506 
0.017937 
0.015716 
0.015471 
0.019484 
0.018300 
0.013478 
0.013044 
0.019717 
0.025615 
0.023172 
0.021106 
0.023459 
0.023047 
0.020215 
0.018660 
0.019036 