# vtk DataFile Version 3.0
results.vtk
ASCII
DATASET RECTILINEAR_GRID
DIMENSIONS 100 100 1
X_COORDINATES 100 double
0.000000 0.010000 0.020000 0.030000 0.040000 0.050000 0.060000 0.070000 0.080000 0.090000 0.100000 0.110000 0.120000 0.130000 0.140000 0.150000 0.160000 0.170000 0.180000 0.190000 0.200000 0.210000 0.220000 0.230000 0.240000 0.250000 0.260000 0.270000 0.280000 0.290000 0.300000 0.310000 0.320000 0.330000 0.340000 0.350000 0.360000 0.370000 0.380000 0.390000 0.400000 0.410000 0.420000 0.430000 0.440000 0.450000 0.460000 0.470000 0.480000 0.490000 0.500000 0.510000 0.520000 0.530000 0.540000 0.550000 0.560000 0.570000 0.580000 0.590000 0.600000 0.610000 0.620000 0.630000 0.640000 0.650000 0.660000 0.670000 0.680000 0.690000 0.700000 0.710000 0.720000 0.730000 0.740000 0.750000 0.760000 0.770000 0.780000 0.790000 0.800000 0.810000 0.820000 0.830000 0.840000 0.850000 0.860000 0.870000 0.880000 0.890000 0.900000 0.910000 0.920000 0.930000 0.940000 0.950000 0.960000 0.970000 0.980000 0.990000 
Y_COORDINATES 100 double
0.000000 0.010000 0.020000 0.030000 0.040000 0.050000 0.060000 0.070000 0.080000 0.090000 0.100000 0.110000 0.120000 0.130000 0.140000 0.150000 0.160000 0.170000 0.180000 0.190000 0.200000 0.210000 0.220000 0.230000 0.240000 0.250000 0.260000 0.270000 0.280000 0.290000 0.300000 0.310000 0.320000 0.330000 0.340000 0.350000 0.360000 0.370000 0.380000 0.390000 0.400000 0.410000 0.420000 0.430000 0.440000 0.450000 0.460000 0.470000 0.480000 0.490000 0.500000 0.510000 0.520000 0.530000 0.540000 0.550000 0.560000 0.570000 0.580000 0.590000 0.600000 0.610000 0.620000 0.630000 0.640000 0.650000 0.660000 0.670000 0.680000 0.690000 0.700000 0.710000 0.720000 0.730000 0.740000 0.750000 0.760000 0.770000 0.780000 0.790000 0.800000 0.810000 0.820000 0.830000 0.840000 0.850000 0.860000 0.870000 0.880000 0.890000 0.900000 0.910000 0.920000 0.930000 0.940000 0.950000 0.960000 0.970000 0.980000 0.990000 
Z_COORDINATES 1 double
0
POINT_DATA 10000 
FIELD FieldData 1 
Concentração 1 10000 double 
0.128951 
0.175337 
0.126214 
0.090110 
0.144706 
0.082629 
0.099067 
0.112849 
0.103873 
0.047056 
0.054743 
0.108841 
0.110601 
0.072871 
0.122015 
0.152742 
0.140427 
0.092722 
0.119277 
0.121739 
0.107039 
0.175055 
0.139483 
0.085400 
0.106306 
0.112735 
0.047006 
0.034899 
0.066225 
0.041616 
0.038734 
0.088527 
0.105579 
0.087843 
0.035568 
0.037587 
0.091002 
0.098444 
0.041251 
0.039542 
0.085404 
0.070175 
0.093503 
0.085355 
0.028299 
0.000000 
0.010865 
0.049115 
0.119679 
0.162959 
0.191304 
0.107839 
0.091870 
0.031296 
0.000000 
0.000000 
0.000000 
0.042103 
0.132588 
0.185013 
0.118710 
0.151056 
0.082905 
0.093334 
0.085073 
0.036985 
0.037036 
0.077451 
0.052592 
0.067150 
0.029751 
0.017738 
0.006990 
0.014321 
0.016129 
0.044119 
0.078768 
0.029209 
0.000000 
0.000000 
0.016649 
0.030057 
0.071531 
0.072028 
0.122347 
0.163202 
0.088012 
0.089684 
0.046256 
0.060052 
0.131830 
0.162169 
0.059539 
0.014938 
0.014100 
0.053408 
0.132986 
0.057392 
0.022676 
0.000000 
0.135510 
0.171110 
0.141352 
0.093402 
0.127341 
0.083728 
0.122947 
0.124966 
0.072970 
0.043063 
0.083649 
0.140831 
0.081268 
0.039130 
0.062752 
0.101053 
0.109050 
0.082524 
0.065667 
0.066522 
0.091442 
0.140191 
0.098070 
0.095385 
0.122522 
0.098896 
0.047563 
0.049726 
0.097244 
0.070513 
0.058173 
0.121688 
0.144658 
0.120716 
0.049825 
0.050758 
0.101013 
0.064866 
0.024217 
0.024852 
0.051817 
0.081191 
0.128122 
0.120191 
0.040194 
0.000000 
0.014160 
0.045732 
0.064931 
0.102119 
0.170227 
0.106356 
0.056075 
0.016565 
0.000000 
0.000000 
0.012213 
0.064254 
0.176250 
0.197547 
0.116029 
0.132226 
0.084983 
0.121636 
0.117170 
0.057491 
0.061543 
0.121023 
0.079001 
0.097605 
0.048108 
0.040637 
0.024992 
0.035828 
0.029029 
0.050487 
0.043891 
0.013715 
0.000000 
0.011825 
0.037017 
0.047777 
0.104450 
0.109432 
0.144540 
0.147528 
0.065787 
0.051632 
0.038828 
0.057745 
0.086014 
0.123693 
0.049261 
0.019112 
0.018761 
0.047062 
0.112684 
0.055748 
0.039414 
0.014811 
0.131661 
0.116145 
0.080517 
0.069091 
0.057559 
0.032644 
0.046585 
0.049180 
0.038125 
0.058031 
0.137656 
0.168679 
0.067750 
0.025210 
0.051233 
0.134719 
0.182779 
0.157124 
0.067607 
0.052938 
0.096920 
0.084692 
0.076724 
0.135725 
0.109996 
0.117961 
0.086532 
0.071178 
0.081542 
0.093737 
0.048129 
0.054270 
0.064382 
0.057447 
0.035236 
0.057886 
0.074740 
0.035310 
0.021654 
0.039927 
0.050690 
0.095350 
0.084247 
0.078594 
0.027983 
0.010089 
0.030328 
0.077690 
0.048226 
0.067517 
0.155861 
0.150592 
0.059658 
0.018262 
0.000000 
0.000000 
0.023743 
0.094084 
0.197115 
0.182565 
0.101324 
0.064586 
0.039646 
0.051624 
0.061010 
0.070897 
0.089473 
0.124867 
0.069264 
0.075340 
0.057608 
0.090943 
0.062857 
0.088748 
0.071629 
0.111609 
0.048389 
0.009870 
0.000000 
0.028813 
0.077034 
0.050259 
0.080603 
0.131837 
0.090129 
0.062160 
0.037135 
0.060857 
0.083160 
0.102374 
0.056517 
0.049938 
0.031600 
0.045728 
0.045281 
0.032275 
0.052257 
0.046970 
0.077893 
0.035819 
0.097803 
0.110776 
0.084014 
0.117930 
0.057005 
0.017163 
0.013423 
0.025807 
0.055133 
0.082620 
0.122346 
0.142492 
0.053033 
0.016874 
0.030581 
0.083928 
0.158207 
0.151066 
0.063131 
0.034776 
0.050414 
0.061415 
0.074939 
0.148464 
0.083615 
0.091979 
0.149223 
0.133495 
0.085505 
0.051638 
0.021256 
0.026862 
0.055988 
0.063965 
0.058098 
0.115620 
0.114396 
0.048745 
0.045099 
0.081344 
0.045152 
0.045888 
0.053546 
0.092138 
0.038013 
0.015601 
0.015595 
0.030745 
0.016836 
0.029054 
0.085022 
0.124844 
0.063444 
0.041855 
0.012861 
0.000000 
0.040111 
0.132085 
0.188401 
0.130096 
0.111804 
0.056069 
0.044047 
0.032465 
0.059785 
0.141256 
0.138843 
0.089708 
0.057430 
0.089501 
0.056920 
0.068427 
0.038015 
0.043215 
0.054145 
0.108643 
0.048653 
0.011845 
0.000000 
0.013084 
0.031940 
0.023173 
0.053192 
0.117682 
0.062842 
0.035891 
0.049974 
0.128328 
0.159288 
0.108166 
0.040659 
0.029868 
0.050317 
0.112920 
0.109302 
0.053360 
0.052153 
0.029945 
0.034313 
0.015650 
0.039906 
0.048470 
0.059481 
0.120608 
0.078255 
0.025599 
0.015762 
0.050549 
0.134187 
0.180849 
0.162225 
0.110932 
0.037668 
0.019658 
0.038571 
0.042185 
0.062351 
0.071761 
0.063105 
0.054666 
0.054051 
0.095065 
0.092944 
0.150291 
0.070582 
0.064050 
0.125118 
0.100919 
0.096985 
0.040279 
0.016088 
0.041218 
0.116886 
0.138403 
0.073851 
0.082929 
0.064286 
0.036716 
0.053854 
0.053178 
0.026546 
0.017765 
0.031451 
0.069373 
0.038825 
0.038382 
0.021282 
0.011224 
0.000000 
0.018018 
0.053914 
0.068344 
0.078444 
0.095230 
0.033916 
0.000000 
0.019839 
0.073912 
0.128845 
0.077506 
0.077515 
0.056325 
0.082988 
0.046776 
0.056236 
0.131296 
0.117040 
0.077478 
0.037464 
0.044085 
0.051076 
0.087458 
0.041598 
0.018854 
0.022656 
0.054244 
0.048642 
0.027281 
0.032103 
0.016375 
0.014808 
0.009118 
0.030229 
0.080241 
0.070269 
0.056880 
0.055541 
0.115443 
0.166243 
0.131300 
0.057060 
0.055630 
0.069593 
0.087267 
0.065420 
0.058939 
0.107928 
0.047194 
0.023822 
0.014926 
0.042129 
0.032338 
0.037085 
0.081625 
0.120651 
0.053964 
0.032075 
0.072861 
0.132700 
0.190231 
0.152342 
0.123209 
0.048013 
0.040819 
0.087789 
0.066388 
0.047247 
0.080456 
0.125282 
0.114786 
0.062406 
0.067435 
0.092049 
0.134595 
0.062565 
0.035931 
0.045710 
0.033477 
0.035319 
0.013846 
0.000000 
0.026112 
0.073684 
0.121953 
0.078272 
0.103822 
0.077477 
0.065220 
0.123419 
0.089595 
0.054393 
0.028288 
0.053870 
0.118733 
0.078232 
0.101050 
0.065627 
0.028463 
0.017781 
0.034358 
0.084507 
0.071303 
0.108099 
0.095478 
0.032175 
0.000000 
0.000000 
0.020481 
0.044542 
0.047800 
0.086071 
0.047390 
0.048608 
0.046152 
0.036735 
0.079686 
0.136236 
0.141903 
0.060733 
0.033376 
0.048196 
0.054240 
0.044487 
0.018958 
0.023686 
0.067315 
0.096709 
0.068755 
0.085001 
0.042715 
0.037647 
0.021346 
0.043708 
0.120312 
0.144902 
0.131993 
0.107599 
0.135867 
0.121777 
0.074159 
0.056465 
0.116068 
0.144876 
0.130618 
0.063488 
0.055749 
0.108869 
0.056387 
0.053183 
0.056428 
0.103029 
0.076696 
0.062912 
0.072128 
0.123708 
0.081361 
0.070011 
0.151354 
0.181157 
0.195119 
0.158838 
0.104073 
0.038064 
0.030282 
0.062769 
0.092947 
0.067688 
0.107414 
0.104367 
0.077435 
0.075330 
0.089347 
0.121227 
0.116848 
0.084363 
0.059924 
0.028274 
0.015394 
0.011324 
0.010995 
0.014532 
0.035189 
0.032879 
0.044869 
0.034345 
0.064355 
0.096303 
0.080963 
0.148147 
0.152140 
0.117846 
0.057702 
0.078565 
0.122246 
0.074935 
0.101170 
0.113636 
0.076838 
0.050667 
0.027251 
0.036159 
0.033623 
0.076001 
0.123455 
0.052553 
0.010881 
0.000000 
0.000000 
0.000000 
0.013719 
0.034579 
0.027697 
0.040988 
0.078358 
0.039328 
0.041407 
0.080559 
0.130987 
0.086107 
0.055932 
0.087779 
0.065864 
0.082899 
0.037119 
0.038766 
0.090141 
0.075582 
0.065836 
0.053057 
0.045040 
0.079704 
0.041943 
0.034636 
0.067038 
0.092950 
0.093778 
0.129822 
0.139943 
0.146213 
0.065865 
0.033288 
0.061554 
0.100170 
0.104707 
0.067604 
0.041948 
0.054560 
0.054039 
0.113279 
0.138360 
0.102665 
0.127826 
0.128365 
0.089049 
0.085581 
0.100492 
0.079899 
0.141580 
0.138273 
0.122393 
0.103816 
0.109309 
0.051005 
0.042859 
0.031393 
0.038079 
0.031928 
0.066094 
0.105008 
0.091259 
0.153879 
0.145590 
0.115846 
0.159521 
0.189297 
0.157182 
0.065129 
0.043161 
0.028575 
0.044490 
0.044793 
0.078541 
0.037314 
0.023188 
0.016929 
0.021844 
0.036403 
0.034048 
0.070066 
0.088325 
0.063511 
0.049775 
0.092207 
0.075331 
0.064663 
0.113608 
0.108652 
0.130564 
0.110280 
0.039138 
0.014270 
0.014004 
0.051509 
0.120393 
0.077908 
0.025772 
0.010063 
0.000000 
0.000000 
0.000000 
0.020080 
0.040942 
0.028461 
0.036434 
0.028721 
0.046001 
0.044063 
0.082958 
0.123501 
0.065720 
0.050371 
0.029211 
0.033003 
0.014206 
0.016628 
0.041998 
0.059837 
0.110714 
0.051905 
0.026790 
0.045972 
0.056747 
0.064464 
0.083399 
0.105932 
0.073404 
0.111412 
0.154840 
0.156728 
0.084759 
0.039444 
0.056878 
0.139077 
0.175716 
0.138755 
0.083618 
0.058763 
0.033676 
0.048296 
0.055680 
0.045970 
0.071182 
0.103806 
0.105119 
0.054120 
0.044149 
0.038117 
0.091103 
0.165123 
0.148576 
0.102722 
0.089312 
0.060286 
0.086870 
0.036993 
0.017254 
0.015026 
0.025227 
0.051502 
0.073572 
0.160007 
0.121376 
0.079681 
0.138304 
0.207763 
0.172062 
0.090151 
0.095074 
0.073429 
0.115163 
0.062072 
0.047129 
0.034587 
0.047200 
0.043241 
0.018570 
0.013066 
0.024730 
0.069822 
0.099259 
0.049581 
0.024447 
0.036993 
0.035971 
0.061877 
0.091494 
0.088281 
0.092849 
0.062695 
0.019307 
0.000000 
0.000000 
0.029200 
0.080137 
0.122658 
0.064474 
0.048770 
0.020895 
0.000000 
0.000000 
0.041022 
0.105871 
0.051496 
0.028798 
0.052865 
0.109301 
0.054836 
0.060799 
0.124713 
0.092079 
0.061320 
0.026697 
0.011207 
0.000000 
0.012808 
0.024815 
0.048262 
0.107486 
0.052046 
0.027125 
0.046860 
0.112693 
0.136746 
0.125860 
0.081667 
0.060171 
0.112106 
0.115701 
0.107178 
0.115058 
0.072328 
0.053693 
0.108719 
0.147239 
0.111396 
0.124796 
0.111151 
0.048753 
0.025073 
0.015354 
0.043253 
0.073900 
0.106083 
0.065360 
0.024725 
0.017983 
0.019331 
0.064360 
0.154900 
0.120944 
0.133271 
0.125177 
0.066891 
0.073739 
0.032488 
0.025387 
0.036468 
0.029118 
0.049407 
0.065252 
0.145331 
0.135266 
0.097563 
0.175905 
0.200613 
0.115497 
0.070984 
0.056886 
0.062499 
0.127638 
0.088071 
0.055387 
0.074392 
0.116744 
0.108679 
0.043925 
0.019102 
0.040295 
0.091399 
0.072251 
0.048881 
0.018336 
0.015170 
0.040345 
0.113559 
0.146952 
0.149472 
0.136936 
0.077059 
0.022624 
0.000000 
0.012560 
0.041455 
0.064205 
0.128688 
0.114358 
0.134505 
0.073531 
0.019576 
0.000000 
0.042165 
0.114989 
0.075841 
0.045294 
0.084197 
0.125406 
0.052182 
0.037062 
0.091712 
0.152119 
0.131389 
0.069115 
0.023186 
0.020448 
0.051465 
0.054362 
0.035331 
0.053443 
0.056132 
0.047512 
0.031368 
0.049884 
0.062894 
0.063122 
0.060363 
0.038960 
0.070249 
0.114951 
0.106509 
0.113230 
0.111221 
0.077586 
0.107674 
0.080592 
0.044542 
0.052025 
0.059172 
0.061916 
0.047756 
0.019024 
0.065845 
0.094224 
0.064669 
0.027632 
0.019121 
0.032654 
0.021518 
0.047763 
0.116053 
0.070283 
0.072532 
0.084534 
0.070682 
0.117884 
0.064415 
0.074822 
0.095875 
0.066103 
0.090880 
0.050664 
0.059019 
0.061823 
0.068990 
0.155162 
0.169472 
0.100920 
0.101943 
0.055763 
0.053033 
0.114487 
0.151622 
0.116407 
0.112578 
0.079528 
0.065775 
0.049571 
0.029299 
0.045308 
0.050096 
0.049579 
0.078432 
0.029401 
0.000000 
0.014517 
0.047980 
0.065843 
0.076251 
0.104467 
0.103187 
0.041680 
0.014735 
0.031861 
0.081365 
0.058372 
0.083247 
0.136254 
0.165215 
0.121003 
0.037600 
0.000000 
0.019539 
0.068654 
0.105118 
0.085744 
0.145027 
0.117147 
0.042764 
0.033528 
0.088612 
0.141489 
0.111356 
0.100097 
0.045678 
0.059567 
0.152343 
0.150375 
0.066250 
0.054978 
0.107894 
0.107188 
0.048660 
0.032376 
0.051901 
0.063275 
0.111366 
0.049496 
0.038433 
0.083817 
0.151289 
0.138562 
0.087630 
0.072510 
0.068596 
0.055693 
0.025487 
0.028513 
0.059991 
0.136269 
0.117150 
0.045776 
0.035417 
0.041783 
0.030069 
0.018160 
0.041022 
0.077245 
0.032653 
0.020897 
0.044686 
0.046452 
0.074916 
0.103432 
0.077154 
0.119260 
0.085483 
0.123864 
0.079329 
0.053326 
0.067040 
0.030564 
0.027605 
0.043225 
0.035949 
0.068996 
0.097538 
0.085261 
0.091473 
0.076090 
0.088728 
0.148557 
0.193147 
0.175454 
0.089698 
0.048729 
0.071971 
0.095371 
0.062545 
0.083815 
0.040052 
0.020572 
0.029865 
0.010957 
0.000000 
0.000000 
0.030336 
0.050359 
0.055765 
0.099199 
0.073615 
0.047840 
0.018122 
0.020731 
0.051732 
0.049746 
0.037122 
0.054559 
0.069209 
0.049680 
0.014434 
0.000000 
0.000000 
0.034605 
0.085850 
0.098719 
0.188042 
0.174770 
0.067690 
0.057424 
0.126207 
0.106330 
0.086031 
0.065642 
0.041978 
0.071454 
0.185228 
0.170399 
0.085919 
0.038507 
0.048709 
0.058100 
0.060107 
0.052564 
0.097065 
0.079477 
0.121130 
0.051211 
0.034236 
0.064327 
0.123880 
0.084861 
0.071815 
0.128758 
0.106914 
0.099755 
0.047936 
0.050194 
0.067534 
0.124302 
0.081117 
0.027545 
0.067317 
0.048067 
0.064186 
0.038551 
0.074346 
0.047613 
0.013787 
0.000000 
0.032023 
0.094506 
0.104528 
0.065446 
0.032819 
0.046099 
0.055126 
0.110007 
0.069680 
0.096648 
0.104993 
0.044761 
0.045795 
0.081489 
0.049788 
0.061878 
0.121647 
0.143011 
0.148489 
0.142011 
0.127685 
0.107013 
0.163644 
0.190840 
0.075490 
0.047634 
0.090288 
0.068608 
0.033853 
0.042611 
0.022334 
0.000000 
0.000000 
0.000000 
0.000000 
0.029081 
0.085297 
0.093047 
0.045877 
0.045803 
0.048353 
0.078014 
0.035404 
0.038166 
0.090488 
0.093132 
0.038584 
0.032703 
0.067499 
0.032512 
0.000000 
0.000000 
0.000000 
0.051013 
0.158023 
0.155970 
0.199160 
0.212136 
0.079628 
0.064991 
0.133859 
0.148972 
0.174927 
0.128223 
0.100084 
0.085602 
0.184234 
0.125548 
0.108312 
0.047922 
0.028653 
0.062988 
0.135948 
0.075630 
0.098997 
0.070102 
0.105825 
0.053120 
0.079318 
0.087860 
0.068109 
0.042580 
0.055470 
0.134053 
0.125834 
0.073844 
0.053657 
0.104106 
0.104090 
0.084361 
0.078718 
0.025702 
0.239252 
0.153403 
0.228514 
0.115279 
0.259654 
0.067678 
0.006592 
0.006963 
0.070905 
0.262849 
0.094916 
0.028965 
0.000000 
0.000000 
0.012471 
0.040710 
0.064721 
0.225296 
0.131510 
0.043695 
0.071881 
0.063872 
0.077961 
0.082394 
0.058085 
0.058066 
0.052977 
0.051744 
0.055307 
0.078265 
0.272853 
0.289303 
0.072002 
0.027787 
0.051634 
0.067775 
0.031717 
0.069274 
0.065385 
0.022586 
0.021424 
0.054627 
0.037388 
0.105469 
0.229297 
0.082387 
0.019285 
0.016663 
0.020008 
0.033185 
0.028197 
0.103340 
0.225238 
0.087500 
0.024358 
0.054833 
0.215115 
0.100868 
0.018956 
0.000000 
0.005681 
0.065765 
0.285099 
0.293968 
0.215492 
0.317206 
0.092134 
0.079252 
0.112306 
0.282985 
0.341005 
0.331299 
0.318011 
0.132823 
0.256287 
0.093194 
0.103005 
0.081311 
0.038649 
0.113931 
0.257371 
0.122763 
0.238423 
0.173212 
0.284308 
0.124643 
0.268066 
0.269681 
0.125335 
0.073981 
0.027564 
0.045490 
0.043815 
0.027827 
0.040863 
0.140690 
0.251989 
0.161138 
0.223953 
0.059811 
0.154878 
0.238273 
0.111981 
0.088615 
0.259564 
0.063540 
0.006518 
0.021028 
0.118729 
0.272340 
0.082802 
0.065090 
0.013657 
0.000000 
0.000000 
0.000000 
0.019147 
0.102160 
0.230254 
0.117862 
0.277402 
0.178835 
0.286053 
0.310262 
0.089242 
0.070985 
0.022657 
0.020618 
0.057000 
0.029827 
0.073382 
0.076154 
0.031173 
0.070937 
0.115864 
0.223449 
0.113642 
0.259188 
0.264521 
0.123914 
0.121074 
0.240016 
0.160076 
0.244287 
0.151436 
0.036342 
0.018282 
0.063907 
0.069445 
0.025688 
0.055400 
0.220042 
0.113946 
0.074264 
0.023965 
0.021851 
0.101118 
0.219668 
0.064439 
0.056576 
0.019724 
0.018036 
0.073686 
0.122254 
0.282363 
0.312574 
0.120520 
0.223517 
0.119530 
0.091317 
0.091155 
0.132750 
0.267979 
0.090043 
0.120649 
0.091934 
0.272979 
0.314077 
0.128161 
0.237030 
0.167845 
0.101969 
0.135190 
0.325531 
0.316654 
0.096783 
0.127055 
0.132506 
0.272727 
0.259324 
0.058975 
0.013726 
0.020698 
0.071634 
0.128103 
0.299077 
0.221557 
0.252736 
0.106180 
0.028538 
0.064670 
0.114487 
0.049790 
0.088072 
0.125039 
0.029221 
0.009244 
0.065158 
0.276864 
0.179989 
0.096785 
0.253089 
0.062952 
0.019248 
0.049069 
0.011191 
0.000000 
0.031059 
0.110219 
0.100044 
0.317439 
0.334517 
0.199581 
0.329650 
0.144496 
0.261010 
0.069204 
0.058150 
0.202707 
0.064871 
0.076157 
0.077331 
0.071343 
0.252971 
0.263573 
0.120679 
0.088960 
0.086108 
0.126764 
0.273994 
0.284274 
0.217707 
0.298922 
0.165581 
0.226717 
0.060137 
0.063928 
0.261615 
0.298397 
0.070954 
0.033163 
0.107135 
0.083071 
0.224376 
0.107166 
0.025838 
0.039275 
0.107927 
0.075370 
0.214834 
0.099381 
0.021573 
0.019126 
0.031072 
0.073856 
0.072747 
0.034321 
0.102162 
0.226268 
0.109877 
0.042407 
0.073632 
0.076213 
0.069633 
0.229474 
0.125226 
0.150240 
0.328181 
0.143873 
0.129402 
0.276876 
0.263357 
0.127512 
0.279355 
0.133578 
0.082960 
0.223268 
0.093317 
0.134230 
0.130495 
0.029966 
0.010776 
0.062851 
0.259345 
0.318698 
0.370521 
0.347890 
0.173439 
0.053472 
0.067848 
0.177651 
0.284529 
0.136637 
0.326717 
0.319329 
0.072280 
0.018346 
0.076803 
0.314599 
0.324883 
0.132286 
0.258350 
0.068200 
0.056692 
0.200012 
0.049244 
0.011491 
0.053832 
0.221086 
0.121879 
0.139389 
0.293965 
0.191567 
0.299598 
0.182355 
0.271380 
0.066911 
0.026774 
0.058753 
0.068733 
0.252908 
0.258264 
0.073014 
0.075776 
0.074820 
0.088291 
0.258519 
0.091131 
0.092623 
0.132343 
0.134065 
0.284953 
0.312198 
0.094197 
0.062056 
0.017006 
0.027574 
0.112818 
0.262386 
0.069857 
0.058839 
0.210205 
0.083280 
0.166452 
0.275789 
0.083649 
0.109192 
0.220829 
0.070739 
0.106516 
0.220050 
0.066186 
0.070382 
0.078207 
0.079312 
0.031411 
0.013829 
0.026152 
0.100918 
0.220307 
0.107144 
0.209993 
0.060488 
0.040267 
0.158318 
0.249805 
0.183365 
0.326423 
0.270237 
0.090126 
0.120156 
0.079465 
0.049690 
0.124332 
0.099312 
0.100862 
0.142344 
0.143367 
0.288218 
0.315836 
0.079329 
0.024285 
0.065534 
0.082125 
0.086300 
0.137539 
0.318183 
0.283954 
0.124025 
0.266144 
0.333414 
0.324294 
0.152951 
0.374880 
0.327022 
0.080564 
0.032120 
0.080670 
0.137137 
0.268254 
0.079246 
0.069758 
0.017100 
0.013012 
0.048497 
0.011152 
0.000000 
0.025916 
0.107634 
0.219203 
0.091389 
0.176453 
0.297463 
0.183953 
0.285859 
0.126861 
0.035598 
0.055691 
0.028550 
0.026510 
0.077503 
0.120437 
0.048195 
0.065793 
0.047097 
0.118069 
0.280566 
0.168522 
0.271908 
0.261457 
0.080606 
0.091747 
0.131807 
0.080627 
0.030855 
0.023274 
0.056113 
0.040140 
0.068258 
0.023145 
0.015568 
0.057295 
0.070762 
0.269463 
0.308161 
0.126352 
0.227829 
0.101604 
0.022591 
0.032832 
0.106956 
0.081212 
0.260567 
0.313854 
0.324810 
0.132070 
0.070336 
0.018072 
0.022096 
0.065190 
0.073907 
0.063675 
0.022347 
0.069007 
0.283002 
0.183291 
0.287116 
0.134327 
0.085242 
0.074030 
0.213660 
0.077247 
0.116588 
0.283121 
0.324199 
0.377443 
0.395210 
0.351037 
0.203134 
0.335856 
0.139548 
0.080718 
0.217563 
0.106845 
0.029620 
0.028658 
0.090326 
0.129977 
0.103074 
0.139846 
0.151635 
0.141973 
0.107524 
0.329362 
0.147204 
0.093163 
0.127153 
0.278132 
0.132939 
0.080460 
0.036725 
0.061523 
0.020427 
0.000000 
0.000000 
0.000000 
0.014255 
0.065919 
0.086499 
0.073098 
0.073254 
0.270269 
0.309448 
0.138094 
0.273125 
0.124724 
0.074194 
0.223788 
0.121815 
0.085258 
0.087371 
0.278944 
0.170459 
0.242344 
0.159197 
0.239759 
0.157896 
0.235007 
0.120880 
0.078469 
0.037518 
0.114748 
0.271015 
0.266505 
0.124032 
0.119683 
0.228832 
0.118106 
0.093100 
0.067267 
0.016594 
0.014817 
0.016570 
0.066869 
0.089179 
0.090903 
0.114197 
0.032178 
0.008878 
0.052074 
0.209545 
0.073481 
0.085393 
0.143993 
0.368836 
0.330366 
0.261573 
0.065646 
0.024666 
0.064802 
0.204565 
0.056722 
0.018734 
0.083432 
0.321758 
0.192428 
0.281455 
0.087618 
0.079639 
0.078573 
0.078494 
0.074756 
0.229721 
0.169267 
0.151469 
0.349063 
0.443909 
0.404050 
0.212071 
0.348847 
0.331678 
0.143902 
0.120751 
0.214925 
0.054142 
0.029636 
0.121024 
0.278085 
0.310557 
0.319155 
0.308989 
0.272921 
0.133858 
0.321754 
0.146254 
0.275889 
0.319044 
0.354129 
0.272109 
0.084537 
0.116510 
0.234486 
0.108516 
0.021200 
0.014096 
0.055569 
0.069396 
0.262935 
0.300777 
0.075533 
0.023051 
0.064350 
0.072007 
0.041864 
0.108646 
0.218514 
0.084558 
0.175524 
0.341827 
0.323411 
0.140935 
0.327827 
0.334499 
0.187764 
0.283315 
0.116224 
0.040485 
0.068403 
0.082295 
0.078551 
0.072753 
0.217817 
0.118377 
0.123944 
0.266902 
0.277372 
0.171461 
0.294209 
0.353216 
0.275271 
0.071102 
0.056830 
0.015849 
0.028118 
0.114627 
0.270459 
0.258310 
0.057437 
0.006988 
0.020227 
0.067142 
0.082543 
0.080375 
0.087770 
0.284399 
0.176181 
0.097198 
0.087317 
0.086445 
0.084187 
0.065511 
0.018414 
0.029908 
0.126868 
0.321542 
0.291069 
0.169192 
0.091009 
0.261591 
0.267620 
0.131456 
0.089758 
0.115089 
0.224379 
0.083023 
0.147240 
0.389719 
0.392948 
0.316205 
0.240876 
0.346624 
0.323379 
0.089260 
0.059982 
0.022227 
0.072553 
0.272790 
0.134510 
0.091263 
0.080554 
0.074933 
0.071167 
0.078605 
0.272755 
0.139525 
0.133275 
0.091041 
0.083583 
0.073297 
0.079735 
0.282814 
0.222993 
0.287993 
0.072787 
0.057538 
0.203853 
0.075449 
0.119768 
0.267900 
0.064647 
0.006639 
0.009262 
0.026521 
0.056452 
0.033706 
0.067366 
0.080825 
0.290198 
0.410652 
0.332573 
0.105063 
0.178530 
0.303353 
0.183201 
0.272165 
0.070593 
0.017402 
0.062579 
0.252728 
0.263796 
0.117300 
0.070258 
0.025409 
0.030787 
0.078832 
0.128357 
0.113486 
0.179803 
0.300334 
0.169280 
0.081535 
0.203938 
0.056379 
0.059191 
0.226530 
0.160153 
0.080672 
0.016585 
0.013708 
0.060358 
0.092217 
0.303492 
0.264964 
0.078109 
0.116153 
0.236941 
0.131616 
0.332647 
0.376103 
0.326812 
0.081407 
0.036832 
0.116406 
0.283178 
0.138914 
0.122341 
0.225683 
0.085814 
0.127060 
0.141928 
0.314172 
0.266597 
0.077544 
0.067328 
0.031041 
0.076651 
0.287256 
0.201445 
0.199448 
0.312811 
0.196787 
0.320308 
0.077926 
0.017224 
0.023281 
0.124682 
0.325710 
0.145161 
0.082642 
0.033456 
0.004223 
0.006785 
0.021393 
0.113457 
0.272674 
0.266784 
0.067023 
0.018505 
0.023199 
0.071998 
0.309979 
0.342890 
0.363408 
0.083736 
0.023285 
0.062554 
0.066127 
0.045552 
0.107695 
0.025696 
0.000000 
0.018418 
0.100731 
0.220623 
0.068806 
0.076579 
0.083819 
0.128371 
0.283706 
0.127235 
0.076597 
0.242347 
0.212887 
0.247468 
0.108808 
0.020488 
0.000000 
0.014002 
0.069066 
0.117161 
0.217273 
0.061060 
0.027476 
0.060501 
0.076348 
0.265295 
0.304415 
0.283078 
0.169977 
0.229540 
0.066106 
0.057971 
0.020642 
0.021113 
0.100502 
0.220940 
0.064996 
0.014910 
0.051846 
0.219816 
0.163495 
0.287081 
0.120754 
0.026322 
0.035657 
0.117030 
0.108961 
0.374196 
0.404027 
0.378735 
0.104966 
0.124615 
0.287877 
0.351033 
0.090252 
0.031954 
0.072365 
0.119628 
0.230860 
0.121928 
0.270679 
0.119609 
0.038522 
0.076415 
0.067031 
0.035411 
0.117263 
0.286476 
0.334337 
0.365531 
0.150107 
0.266394 
0.064271 
0.014353 
0.058075 
0.269463 
0.362063 
0.328004 
0.279948 
0.126868 
0.000000 
0.000000 
0.000000 
0.035353 
0.132148 
0.131350 
0.031344 
0.017924 
0.058326 
0.031359 
0.086717 
0.147891 
0.326608 
0.079273 
0.017442 
0.057199 
0.207859 
0.101235 
0.212663 
0.051517 
0.011562 
0.052669 
0.226110 
0.162090 
0.093911 
0.255610 
0.253507 
0.077485 
0.073672 
0.030932 
0.025173 
0.115293 
0.280295 
0.115720 
0.028478 
0.008504 
0.000000 
0.000000 
0.021693 
0.071641 
0.073590 
0.040581 
0.102602 
0.214357 
0.067416 
0.076851 
0.077804 
0.079118 
0.082890 
0.067292 
0.024576 
0.027603 
0.053186 
0.015151 
0.021509 
0.063639 
0.062161 
0.014896 
0.019317 
0.101702 
0.239183 
0.169020 
0.088136 
0.025118 
0.066019 
0.263718 
0.131363 
0.304346 
0.245444 
0.346679 
0.144148 
0.284794 
0.175951 
0.276760 
0.072680 
0.019018 
0.070210 
0.264297 
0.119388 
0.037244 
0.072192 
0.077505 
0.083057 
0.300518 
0.262128 
0.061874 
0.040065 
0.121371 
0.137430 
0.272180 
0.078785 
0.063294 
0.013612 
0.000000 
0.013352 
0.067647 
0.102144 
0.146416 
0.180963 
0.279720 
0.051632 
0.018576 
0.010577 
0.071965 
0.318136 
0.318733 
0.080010 
0.076179 
0.253033 
0.078397 
0.087102 
0.146563 
0.326638 
0.080879 
0.019109 
0.021166 
0.054026 
0.030656 
0.052544 
0.011558 
0.000000 
0.019654 
0.114148 
0.281229 
0.129143 
0.089979 
0.073346 
0.031234 
0.070363 
0.065168 
0.024577 
0.075872 
0.255006 
0.071985 
0.029491 
0.057387 
0.013407 
0.006793 
0.059261 
0.225125 
0.131290 
0.123100 
0.232939 
0.105751 
0.040834 
0.067561 
0.029540 
0.060935 
0.211905 
0.071653 
0.075878 
0.113908 
0.220401 
0.054642 
0.020506 
0.057482 
0.201271 
0.049026 
0.006941 
0.024880 
0.107644 
0.268036 
0.253573 
0.063507 
0.068505 
0.254156 
0.094629 
0.171907 
0.298157 
0.325119 
0.145166 
0.310538 
0.095833 
0.079054 
0.065147 
0.021766 
0.065688 
0.262828 
0.117475 
0.029032 
0.058935 
0.209713 
0.112664 
0.269195 
0.117862 
0.027594 
0.053887 
0.209958 
0.071484 
0.064399 
0.014872 
0.000000 
0.000000 
0.000000 
0.000000 
0.026553 
0.115377 
0.273818 
0.278668 
0.127196 
0.224249 
0.102320 
0.034631 
0.079038 
0.312910 
0.313646 
0.089241 
0.119694 
0.270005 
0.125935 
0.268450 
0.325787 
0.363724 
0.103371 
0.079735 
0.066988 
0.032383 
0.054304 
0.018333 
0.000000 
0.000000 
0.010826 
0.080191 
0.304090 
0.278579 
0.133281 
0.084314 
0.071913 
0.253024 
0.257462 
0.071219 
0.072243 
0.078260 
0.043170 
0.114177 
0.261308 
0.064405 
0.022941 
0.082287 
0.178515 
0.327351 
0.289019 
0.161141 
0.065314 
0.123629 
0.264147 
0.067607 
0.034890 
0.112264 
0.082233 
0.256891 
0.281123 
0.163002 
0.044827 
0.054548 
0.024938 
0.051076 
0.011295 
0.000000 
0.000000 
0.019500 
0.064765 
0.067800 
0.016212 
0.016691 
0.068135 
0.067836 
0.223880 
0.127929 
0.132209 
0.093004 
0.265513 
0.073210 
0.065827 
0.208961 
0.054866 
0.032837 
0.106888 
0.214040 
0.052496 
0.018844 
0.051451 
0.028733 
0.076699 
0.070729 
0.016518 
0.015052 
0.057963 
0.023711 
0.015612 
0.000000 
0.000000 
0.000000 
0.000000 
0.000000 
0.052576 
0.221794 
0.125730 
0.119675 
0.037275 
0.151347 
0.233473 
0.120657 
0.084455 
0.085529 
0.083348 
0.068144 
0.217184 
0.120133 
0.089287 
0.086060 
0.129307 
0.290682 
0.183154 
0.324559 
0.271171 
0.108589 
0.213015 
0.053215 
0.018136 
0.050381 
0.026387 
0.068245 
0.094565 
0.135157 
0.318699 
0.266683 
0.073358 
0.082710 
0.123756 
0.078719 
0.219496 
0.124546 
0.125784 
0.275332 
0.300201 
0.074258 
0.064233 
0.258786 
0.318400 
0.324410 
0.170584 
0.248312 
0.177447 
0.330209 
0.314662 
0.083546 
0.073430 
0.257340 
0.078784 
0.089289 
0.174089 
0.286504 
0.115221 
0.208077 
0.052801 
0.018031 
0.000000 
0.000000 
0.000000 
0.000000 
0.019464 
0.056398 
0.014686 
0.015278 
0.057617 
0.026835 
0.060928 
0.076166 
0.215749 
0.083474 
0.112886 
0.029816 
0.029654 
0.106773 
0.039872 
0.061910 
0.033201 
0.052611 
0.012948 
0.006010 
0.006802 
0.020986 
0.105534 
0.214604 
0.052836 
0.021330 
0.070551 
0.080867 
0.065989 
0.025946 
0.051819 
0.017949 
0.000000 
0.000000 
0.025352 
0.107520 
0.087472 
0.212740 
0.059048 
0.047538 
0.122180 
0.313897 
0.264123 
0.077756 
0.065967 
0.028170 
0.061228 
0.080787 
0.252318 
0.080039 
0.046012 
0.126417 
0.293384 
0.359766 
0.133077 
0.047315 
0.102008 
0.031501 
0.053235 
0.204601 
0.105795 
0.218979 
0.116302 
0.101227 
0.310997 
0.125551 
0.037485 
0.074959 
0.262083 
0.085148 
0.120727 
0.268211 
0.262808 
0.119056 
0.074488 
0.016692 
0.014906 
0.062827 
0.075449 
0.072496 
0.041978 
0.122366 
0.321546 
0.324067 
0.138234 
0.080573 
0.082170 
0.250349 
0.070075 
0.072100 
0.266258 
0.298974 
0.079998 
0.059092 
0.025097 
0.051255 
0.011626 
0.000000 
0.000000 
0.011485 
0.050967 
0.198384 
0.056920 
0.062877 
0.205485 
0.053925 
0.026532 
0.065937 
0.081087 
0.113490 
0.217862 
0.060960 
0.071659 
0.266822 
0.127155 
0.261514 
0.071591 
0.016868 
0.015216 
0.055404 
0.020510 
0.054074 
0.217130 
0.106865 
0.027325 
0.059512 
0.264480 
0.344288 
0.270476 
0.109670 
0.221971 
0.101564 
0.026545 
0.017100 
0.060097 
0.218233 
0.112702 
0.070621 
0.024272 
0.023200 
0.084498 
0.315462 
0.130506 
0.071638 
0.201930 
0.059291 
0.028126 
0.067315 
0.261591 
0.131703 
0.088840 
0.102899 
0.176698 
0.282355 
0.087370 
0.070585 
0.214048 
0.061802 
0.028087 
0.065462 
0.079814 
0.112528 
0.219454 
0.114364 
0.261373 
0.083184 
0.069629 
0.093433 
0.300081 
0.090728 
0.090518 
0.124969 
0.078325 
0.029224 
0.010549 
0.000000 
0.000000 
0.000000 
0.000000 
0.000000 
0.009496 
0.070748 
0.267891 
0.128102 
0.085464 
0.216006 
0.112307 
0.074295 
0.017444 
0.015718 
0.064806 
0.073808 
0.018194 
0.014299 
0.052578 
0.203220 
0.052333 
0.013314 
0.013473 
0.050560 
0.025877 
0.058461 
0.028915 
0.074992 
0.110697 
0.032293 
0.053805 
0.204824 
0.105731 
0.216866 
0.102107 
0.034946 
0.079689 
0.311355 
0.149969 
0.316019 
0.123882 
0.030157 
0.064196 
0.247369 
0.070477 
0.035395 
0.113127 
0.081354 
0.024841 
0.023339 
0.113412 
0.276388 
0.118254 
0.057258 
0.152707 
0.235080 
0.114780 
0.081843 
0.082269 