# vtk DataFile Version 3.0
results.vtk
ASCII
DATASET RECTILINEAR_GRID
DIMENSIONS 100 100 1
X_COORDINATES 100 double
0.000000 0.010000 0.020000 0.030000 0.040000 0.050000 0.060000 0.070000 0.080000 0.090000 0.100000 0.110000 0.120000 0.130000 0.140000 0.150000 0.160000 0.170000 0.180000 0.190000 0.200000 0.210000 0.220000 0.230000 0.240000 0.250000 0.260000 0.270000 0.280000 0.290000 0.300000 0.310000 0.320000 0.330000 0.340000 0.350000 0.360000 0.370000 0.380000 0.390000 0.400000 0.410000 0.420000 0.430000 0.440000 0.450000 0.460000 0.470000 0.480000 0.490000 0.500000 0.510000 0.520000 0.530000 0.540000 0.550000 0.560000 0.570000 0.580000 0.590000 0.600000 0.610000 0.620000 0.630000 0.640000 0.650000 0.660000 0.670000 0.680000 0.690000 0.700000 0.710000 0.720000 0.730000 0.740000 0.750000 0.760000 0.770000 0.780000 0.790000 0.800000 0.810000 0.820000 0.830000 0.840000 0.850000 0.860000 0.870000 0.880000 0.890000 0.900000 0.910000 0.920000 0.930000 0.940000 0.950000 0.960000 0.970000 0.980000 0.990000 
Y_COORDINATES 100 double
0.000000 0.010000 0.020000 0.030000 0.040000 0.050000 0.060000 0.070000 0.080000 0.090000 0.100000 0.110000 0.120000 0.130000 0.140000 0.150000 0.160000 0.170000 0.180000 0.190000 0.200000 0.210000 0.220000 0.230000 0.240000 0.250000 0.260000 0.270000 0.280000 0.290000 0.300000 0.310000 0.320000 0.330000 0.340000 0.350000 0.360000 0.370000 0.380000 0.390000 0.400000 0.410000 0.420000 0.430000 0.440000 0.450000 0.460000 0.470000 0.480000 0.490000 0.500000 0.510000 0.520000 0.530000 0.540000 0.550000 0.560000 0.570000 0.580000 0.590000 0.600000 0.610000 0.620000 0.630000 0.640000 0.650000 0.660000 0.670000 0.680000 0.690000 0.700000 0.710000 0.720000 0.730000 0.740000 0.750000 0.760000 0.770000 0.780000 0.790000 0.800000 0.810000 0.820000 0.830000 0.840000 0.850000 0.860000 0.870000 0.880000 0.890000 0.900000 0.910000 0.920000 0.930000 0.940000 0.950000 0.960000 0.970000 0.980000 0.990000 
Z_COORDINATES 1 double
0
POINT_DATA 10000 
FIELD FieldData 1 
Concentração 1 10000 double 
0.018110 
0.017827 
0.015936 
0.013957 
0.013100 
0.011999 
0.011977 
0.011700 
0.010347 
0.009573 
0.011031 
0.012523 
0.011352 
0.010067 
0.011428 
0.013829 
0.014575 
0.013313 
0.012062 
0.012014 
0.013314 
0.014807 
0.014446 
0.013716 
0.013222 
0.011754 
0.009375 
0.008345 
0.008637 
0.008460 
0.008924 
0.010941 
0.012063 
0.010792 
0.008503 
0.008140 
0.008943 
0.008054 
0.006307 
0.006218 
0.007901 
0.009878 
0.011001 
0.009460 
0.005074 
0.000000 
0.003010 
0.006612 
0.010588 
0.014406 
0.016277 
0.013732 
0.009036 
0.004175 
0.000000 
0.000000 
0.000000 
0.009025 
0.016120 
0.018708 
0.016882 
0.014649 
0.012472 
0.011626 
0.010637 
0.009224 
0.009247 
0.010147 
0.009620 
0.008583 
0.006692 
0.005218 
0.004358 
0.004458 
0.005064 
0.005893 
0.005270 
0.002839 
0.000000 
0.000000 
0.003713 
0.006593 
0.009860 
0.012555 
0.014301 
0.013906 
0.011212 
0.009274 
0.008587 
0.009569 
0.011215 
0.011145 
0.008049 
0.005408 
0.005138 
0.007006 
0.008764 
0.007280 
0.004385 
0.000000 
0.017315 
0.016964 
0.015149 
0.013204 
0.012074 
0.010883 
0.010855 
0.010712 
0.009832 
0.009829 
0.011737 
0.012910 
0.010971 
0.009199 
0.010456 
0.013238 
0.014527 
0.013337 
0.011514 
0.011060 
0.012270 
0.013691 
0.013746 
0.013677 
0.013346 
0.012046 
0.010030 
0.009098 
0.009211 
0.008815 
0.008891 
0.010540 
0.011600 
0.010551 
0.008578 
0.008321 
0.008823 
0.007634 
0.005998 
0.006026 
0.007632 
0.009676 
0.010840 
0.009430 
0.005201 
0.000000 
0.003100 
0.006228 
0.009465 
0.013007 
0.015291 
0.013340 
0.008807 
0.004089 
0.000000 
0.000000 
0.003594 
0.010294 
0.016724 
0.018646 
0.016313 
0.013705 
0.011611 
0.011034 
0.010565 
0.009820 
0.010116 
0.010847 
0.010081 
0.009014 
0.007329 
0.006114 
0.005320 
0.005409 
0.005910 
0.006458 
0.005322 
0.002726 
0.000000 
0.001806 
0.004433 
0.006965 
0.010095 
0.012632 
0.013746 
0.012888 
0.010484 
0.009182 
0.008956 
0.009623 
0.010416 
0.010073 
0.007628 
0.005702 
0.005500 
0.006872 
0.008274 
0.007144 
0.005113 
0.003020 
0.014890 
0.014466 
0.013003 
0.011453 
0.009740 
0.008044 
0.007785 
0.008286 
0.009068 
0.010789 
0.013214 
0.013501 
0.010300 
0.007913 
0.009155 
0.012643 
0.014950 
0.013983 
0.011187 
0.009800 
0.010508 
0.011737 
0.012671 
0.013702 
0.013440 
0.012647 
0.011606 
0.010661 
0.009888 
0.008654 
0.007733 
0.008502 
0.009573 
0.009370 
0.008499 
0.008757 
0.008787 
0.007260 
0.006030 
0.006227 
0.007248 
0.008721 
0.009573 
0.008667 
0.005634 
0.003128 
0.003791 
0.005529 
0.007315 
0.010275 
0.013189 
0.012613 
0.008831 
0.004475 
0.000000 
0.000000 
0.004974 
0.011458 
0.016925 
0.017595 
0.014600 
0.011388 
0.009332 
0.009036 
0.009740 
0.010751 
0.011563 
0.011545 
0.010176 
0.009145 
0.008084 
0.007497 
0.006819 
0.006875 
0.007368 
0.007699 
0.005830 
0.002848 
0.000000 
0.002501 
0.004834 
0.006787 
0.009512 
0.011781 
0.011837 
0.010575 
0.009506 
0.010082 
0.010833 
0.010553 
0.009392 
0.008386 
0.007339 
0.006965 
0.006820 
0.006980 
0.007416 
0.006634 
0.005513 
0.004249 
0.011857 
0.011729 
0.011274 
0.010742 
0.008790 
0.006455 
0.005941 
0.007449 
0.010148 
0.012960 
0.014638 
0.013439 
0.009377 
0.006754 
0.007668 
0.010767 
0.013328 
0.013047 
0.010575 
0.008913 
0.009156 
0.010458 
0.012102 
0.013564 
0.012883 
0.012408 
0.012500 
0.011636 
0.009829 
0.007508 
0.005981 
0.006798 
0.008658 
0.009522 
0.009413 
0.009861 
0.009423 
0.007791 
0.006988 
0.006956 
0.006789 
0.007176 
0.007955 
0.008014 
0.006104 
0.004363 
0.003911 
0.004085 
0.004274 
0.007008 
0.010186 
0.011033 
0.009014 
0.005940 
0.002464 
0.000000 
0.005057 
0.010973 
0.015173 
0.015043 
0.012479 
0.009628 
0.007981 
0.007841 
0.009417 
0.011860 
0.012782 
0.011671 
0.009655 
0.008641 
0.008019 
0.007666 
0.006746 
0.006444 
0.007058 
0.007744 
0.006181 
0.003398 
0.000000 
0.002522 
0.004116 
0.005520 
0.008007 
0.010388 
0.010369 
0.009521 
0.009960 
0.012183 
0.013425 
0.011943 
0.009292 
0.008116 
0.008368 
0.009094 
0.008775 
0.007958 
0.007517 
0.006316 
0.005185 
0.004222 
0.008849 
0.009028 
0.009635 
0.010404 
0.009258 
0.006977 
0.006577 
0.009163 
0.013278 
0.016311 
0.016385 
0.013424 
0.008861 
0.006402 
0.006936 
0.008739 
0.010481 
0.011105 
0.010334 
0.009368 
0.009355 
0.010594 
0.012297 
0.013378 
0.011921 
0.010892 
0.010942 
0.010094 
0.008233 
0.005732 
0.004095 
0.006038 
0.008950 
0.010477 
0.010215 
0.010158 
0.009482 
0.008464 
0.008391 
0.008004 
0.006831 
0.006341 
0.007238 
0.008208 
0.007333 
0.006176 
0.004962 
0.003407 
0.000000 
0.004657 
0.007853 
0.009471 
0.009373 
0.007630 
0.004005 
0.000000 
0.003346 
0.007828 
0.010912 
0.011078 
0.009938 
0.008347 
0.007515 
0.007454 
0.008935 
0.011662 
0.012851 
0.011594 
0.009152 
0.007835 
0.007532 
0.007364 
0.006237 
0.005386 
0.005898 
0.007127 
0.006815 
0.005324 
0.003908 
0.003748 
0.003995 
0.004741 
0.006993 
0.009781 
0.010670 
0.010586 
0.011519 
0.013826 
0.014725 
0.012635 
0.009891 
0.009329 
0.010192 
0.010676 
0.009737 
0.008787 
0.008422 
0.006998 
0.005785 
0.005095 
0.008155 
0.008281 
0.009018 
0.010295 
0.010307 
0.008746 
0.008733 
0.011848 
0.016016 
0.018391 
0.017228 
0.013434 
0.008916 
0.006844 
0.007299 
0.008231 
0.009211 
0.010540 
0.011207 
0.010839 
0.010565 
0.011378 
0.012792 
0.013436 
0.011584 
0.009544 
0.008305 
0.007032 
0.005541 
0.003471 
0.000000 
0.004712 
0.007856 
0.009510 
0.009484 
0.009662 
0.009594 
0.009713 
0.010676 
0.010289 
0.008499 
0.007331 
0.008226 
0.009662 
0.009492 
0.009036 
0.007804 
0.005936 
0.004256 
0.005112 
0.006882 
0.008405 
0.009534 
0.008825 
0.005175 
0.000000 
0.000000 
0.003479 
0.005564 
0.006786 
0.007288 
0.006901 
0.006716 
0.006874 
0.007862 
0.010254 
0.012195 
0.012006 
0.009758 
0.007957 
0.007447 
0.007086 
0.006042 
0.005012 
0.005544 
0.007290 
0.008037 
0.007457 
0.006420 
0.005434 
0.005104 
0.005398 
0.007317 
0.010334 
0.012120 
0.012689 
0.013614 
0.015018 
0.014739 
0.012100 
0.010003 
0.010619 
0.012171 
0.012254 
0.010507 
0.009179 
0.008864 
0.007939 
0.007582 
0.007617 
0.009956 
0.009961 
0.010203 
0.010784 
0.010999 
0.010271 
0.010904 
0.014238 
0.017602 
0.018701 
0.016771 
0.012946 
0.008806 
0.006917 
0.007071 
0.007705 
0.008461 
0.010060 
0.011337 
0.011708 
0.012224 
0.013036 
0.014098 
0.014771 
0.013491 
0.010840 
0.007976 
0.005901 
0.004684 
0.003961 
0.003518 
0.005074 
0.006348 
0.007070 
0.007160 
0.007762 
0.008577 
0.009722 
0.011606 
0.011815 
0.010064 
0.008550 
0.009129 
0.010327 
0.010621 
0.011098 
0.010678 
0.009086 
0.006965 
0.005515 
0.005423 
0.006515 
0.008646 
0.009455 
0.006915 
0.003037 
0.000000 
0.000000 
0.000000 
0.002808 
0.004773 
0.005606 
0.005991 
0.006385 
0.006922 
0.008569 
0.010552 
0.011606 
0.010636 
0.008951 
0.007970 
0.007029 
0.005922 
0.004803 
0.005367 
0.007211 
0.008381 
0.008377 
0.007311 
0.006314 
0.006280 
0.006620 
0.007976 
0.010262 
0.011963 
0.012926 
0.014406 
0.015653 
0.014816 
0.011705 
0.009559 
0.010475 
0.012729 
0.013283 
0.011475 
0.009574 
0.008706 
0.008197 
0.008762 
0.009441 
0.011175 
0.011433 
0.011575 
0.011102 
0.010430 
0.009956 
0.010911 
0.014150 
0.016920 
0.017192 
0.015273 
0.012284 
0.008959 
0.007098 
0.006268 
0.006143 
0.006685 
0.008384 
0.010386 
0.012103 
0.014037 
0.014879 
0.015539 
0.017016 
0.017123 
0.014378 
0.010287 
0.007526 
0.006397 
0.006360 
0.006206 
0.006343 
0.006127 
0.005911 
0.005576 
0.005607 
0.006248 
0.007662 
0.009834 
0.010513 
0.009143 
0.007839 
0.008249 
0.009262 
0.010359 
0.011840 
0.012280 
0.011276 
0.008681 
0.005484 
0.003467 
0.004008 
0.007103 
0.009453 
0.008643 
0.005785 
0.002987 
0.000000 
0.000000 
0.000000 
0.003631 
0.005587 
0.005976 
0.006154 
0.006771 
0.008032 
0.009204 
0.010628 
0.011166 
0.009943 
0.008200 
0.006282 
0.004626 
0.003209 
0.004349 
0.006274 
0.007900 
0.008616 
0.007491 
0.006422 
0.006798 
0.007944 
0.009355 
0.010722 
0.011475 
0.012042 
0.013822 
0.015384 
0.014831 
0.012108 
0.009932 
0.010619 
0.013285 
0.014504 
0.013015 
0.010800 
0.009042 
0.007714 
0.007475 
0.007607 
0.010093 
0.010649 
0.011045 
0.010036 
0.008442 
0.007723 
0.008788 
0.012231 
0.015503 
0.015890 
0.014348 
0.012105 
0.009580 
0.007921 
0.006249 
0.005326 
0.005442 
0.006684 
0.008788 
0.011297 
0.014065 
0.014938 
0.015554 
0.017886 
0.018992 
0.016378 
0.012210 
0.009618 
0.008965 
0.009474 
0.008942 
0.008058 
0.007373 
0.007040 
0.006275 
0.005210 
0.005005 
0.006261 
0.008341 
0.008972 
0.007575 
0.006042 
0.006048 
0.007411 
0.009680 
0.011901 
0.012694 
0.011783 
0.008780 
0.004569 
0.000000 
0.000000 
0.005544 
0.009111 
0.010301 
0.009012 
0.006829 
0.003661 
0.000000 
0.000000 
0.004115 
0.006979 
0.007350 
0.007318 
0.008330 
0.009328 
0.009111 
0.009914 
0.011509 
0.011388 
0.009446 
0.006594 
0.003830 
0.000000 
0.004079 
0.006133 
0.007481 
0.008346 
0.007549 
0.006660 
0.007165 
0.008858 
0.010395 
0.010989 
0.010717 
0.010642 
0.012281 
0.014058 
0.014273 
0.012787 
0.010986 
0.010935 
0.012741 
0.013566 
0.012384 
0.010917 
0.009491 
0.007832 
0.006474 
0.005588 
0.009080 
0.009552 
0.009579 
0.008089 
0.006322 
0.005646 
0.006588 
0.009781 
0.013282 
0.014079 
0.013418 
0.012065 
0.010233 
0.008979 
0.007293 
0.006381 
0.006300 
0.006812 
0.008169 
0.010009 
0.012390 
0.013447 
0.014546 
0.017349 
0.018472 
0.015855 
0.012283 
0.010200 
0.010327 
0.011862 
0.011936 
0.010834 
0.009904 
0.009342 
0.008195 
0.006362 
0.005375 
0.006141 
0.007543 
0.007677 
0.006333 
0.004474 
0.003761 
0.005753 
0.009100 
0.011823 
0.012876 
0.012138 
0.009126 
0.004781 
0.000000 
0.002498 
0.005948 
0.008986 
0.011195 
0.011704 
0.010639 
0.007287 
0.003034 
0.000000 
0.004234 
0.007876 
0.009146 
0.009679 
0.011066 
0.011308 
0.009553 
0.009491 
0.011755 
0.013104 
0.011753 
0.008727 
0.006079 
0.005372 
0.007524 
0.008477 
0.008193 
0.008175 
0.007908 
0.007345 
0.007186 
0.008087 
0.009322 
0.009899 
0.009720 
0.009245 
0.010486 
0.012661 
0.013876 
0.013386 
0.011977 
0.011268 
0.011564 
0.011054 
0.009645 
0.009030 
0.009057 
0.008731 
0.007344 
0.005730 
0.008645 
0.008738 
0.008115 
0.006629 
0.005605 
0.005173 
0.005359 
0.007305 
0.010305 
0.011481 
0.011606 
0.011181 
0.010355 
0.010063 
0.009149 
0.008826 
0.008627 
0.008443 
0.008569 
0.008583 
0.009475 
0.010427 
0.011983 
0.014929 
0.016242 
0.014546 
0.012251 
0.010810 
0.011499 
0.014013 
0.015437 
0.014401 
0.012143 
0.010279 
0.008954 
0.007455 
0.006318 
0.006407 
0.006578 
0.006039 
0.004994 
0.002895 
0.000000 
0.003086 
0.007093 
0.009723 
0.010951 
0.011053 
0.009148 
0.005957 
0.003592 
0.004527 
0.006862 
0.008667 
0.010377 
0.011810 
0.011787 
0.008707 
0.003999 
0.000000 
0.003102 
0.007583 
0.010814 
0.012852 
0.014729 
0.013997 
0.010783 
0.009943 
0.012290 
0.014208 
0.013481 
0.011068 
0.009077 
0.009757 
0.012456 
0.012589 
0.010376 
0.008889 
0.008726 
0.008616 
0.008136 
0.008194 
0.009220 
0.010067 
0.010272 
0.009171 
0.009615 
0.011785 
0.013565 
0.013307 
0.012068 
0.011415 
0.010865 
0.009546 
0.008068 
0.008205 
0.009613 
0.010660 
0.009415 
0.007168 
0.009414 
0.009213 
0.008562 
0.007583 
0.007449 
0.006319 
0.004757 
0.004658 
0.008129 
0.010646 
0.011032 
0.010324 
0.009334 
0.009492 
0.009657 
0.010260 
0.010335 
0.010369 
0.009703 
0.008237 
0.008106 
0.008803 
0.010086 
0.012393 
0.013874 
0.013590 
0.012723 
0.012138 
0.013192 
0.016164 
0.018856 
0.017824 
0.013545 
0.010379 
0.009422 
0.008701 
0.007595 
0.007122 
0.005879 
0.003683 
0.002781 
0.001520 
0.000000 
0.000000 
0.006639 
0.008639 
0.009036 
0.009273 
0.008337 
0.006514 
0.005271 
0.006341 
0.008293 
0.008669 
0.008693 
0.009709 
0.010310 
0.007654 
0.002884 
0.000000 
0.000000 
0.007310 
0.013304 
0.017153 
0.019586 
0.018374 
0.013669 
0.012001 
0.014220 
0.016517 
0.016604 
0.014898 
0.013314 
0.013943 
0.016620 
0.015799 
0.012507 
0.009720 
0.009000 
0.009871 
0.010655 
0.010729 
0.011848 
0.012670 
0.012885 
0.011154 
0.011176 
0.012568 
0.013297 
0.012380 
0.011502 
0.011817 
0.011404 
0.010010 
0.009020 
0.010136 
0.012048 
0.012811 
0.011035 
0.008096 
0.016352 
0.015746 
0.014982 
0.013802 
0.013940 
0.009413 
0.004512 
0.000000 
0.009600 
0.015241 
0.013597 
0.009800 
0.006096 
0.005954 
0.007524 
0.009725 
0.012044 
0.014906 
0.014308 
0.011525 
0.011358 
0.011962 
0.013004 
0.014256 
0.014449 
0.014247 
0.013630 
0.013360 
0.014551 
0.018028 
0.023043 
0.022428 
0.015591 
0.011294 
0.010883 
0.010769 
0.009591 
0.009468 
0.007332 
0.000000 
0.000000 
0.000000 
0.000000 
0.008315 
0.012631 
0.011078 
0.008611 
0.008019 
0.007763 
0.007303 
0.007757 
0.010916 
0.013438 
0.011623 
0.009191 
0.010005 
0.012235 
0.009096 
0.000000 
0.000000 
0.000000 
0.010062 
0.019895 
0.025536 
0.027996 
0.026415 
0.019057 
0.016348 
0.019112 
0.023835 
0.026276 
0.025630 
0.023399 
0.020965 
0.021968 
0.019357 
0.016408 
0.013482 
0.012081 
0.014781 
0.017788 
0.017546 
0.019151 
0.020479 
0.020860 
0.018054 
0.018704 
0.019058 
0.016968 
0.013699 
0.011295 
0.011455 
0.011406 
0.010986 
0.012331 
0.016588 
0.019618 
0.018927 
0.015706 
0.010932 
0.037313 
0.035700 
0.033571 
0.030733 
0.032775 
0.019019 
0.008441 
0.009028 
0.022151 
0.033778 
0.024682 
0.013443 
0.000000 
0.000000 
0.004751 
0.009268 
0.016940 
0.027930 
0.028654 
0.023336 
0.025566 
0.026555 
0.028541 
0.028411 
0.022597 
0.019180 
0.016112 
0.015489 
0.018136 
0.024364 
0.036432 
0.036609 
0.023144 
0.017173 
0.018811 
0.020502 
0.018902 
0.021704 
0.020817 
0.015351 
0.014743 
0.017958 
0.020064 
0.026995 
0.029810 
0.019612 
0.011756 
0.011074 
0.011442 
0.011010 
0.014172 
0.023837 
0.028444 
0.021456 
0.014230 
0.016336 
0.024786 
0.021712 
0.010009 
0.000000 
0.006473 
0.018107 
0.036219 
0.046054 
0.050132 
0.048784 
0.033198 
0.028569 
0.032812 
0.043060 
0.049851 
0.051509 
0.048275 
0.038065 
0.037732 
0.031561 
0.031026 
0.028991 
0.024820 
0.030994 
0.037721 
0.035246 
0.039671 
0.044460 
0.045565 
0.037138 
0.040062 
0.040203 
0.034199 
0.025314 
0.015631 
0.012808 
0.013289 
0.016104 
0.023468 
0.036454 
0.043179 
0.039256 
0.031297 
0.019818 
0.040329 
0.040143 
0.034292 
0.033399 
0.036598 
0.020852 
0.010632 
0.015631 
0.032707 
0.042290 
0.030610 
0.021336 
0.008876 
0.000000 
0.000000 
0.000000 
0.009996 
0.024530 
0.034368 
0.035637 
0.045762 
0.048624 
0.051109 
0.049508 
0.034483 
0.025777 
0.016619 
0.014290 
0.017873 
0.019731 
0.026614 
0.027288 
0.021662 
0.024809 
0.030398 
0.033123 
0.031585 
0.036828 
0.038612 
0.035194 
0.035744 
0.040793 
0.041493 
0.041272 
0.035002 
0.020441 
0.015164 
0.020374 
0.021867 
0.016358 
0.018772 
0.029712 
0.030285 
0.025439 
0.017759 
0.016379 
0.024741 
0.028746 
0.020122 
0.015570 
0.012922 
0.014874 
0.025407 
0.036260 
0.046767 
0.047443 
0.035147 
0.034328 
0.034672 
0.035225 
0.036475 
0.040726 
0.042722 
0.034907 
0.036789 
0.036862 
0.045845 
0.049780 
0.040544 
0.041757 
0.043843 
0.040060 
0.043755 
0.054456 
0.052179 
0.039303 
0.039938 
0.041365 
0.044079 
0.037250 
0.020044 
0.011938 
0.014800 
0.025566 
0.039229 
0.054515 
0.056754 
0.047583 
0.031996 
0.020500 
0.037471 
0.038306 
0.033379 
0.037037 
0.036982 
0.020690 
0.013250 
0.023526 
0.044207 
0.047902 
0.037318 
0.033813 
0.018909 
0.010422 
0.010055 
0.005250 
0.000000 
0.016732 
0.030995 
0.038272 
0.053557 
0.060871 
0.059653 
0.059583 
0.046736 
0.039310 
0.023661 
0.018564 
0.022963 
0.022050 
0.026799 
0.028006 
0.026171 
0.034153 
0.037910 
0.035318 
0.033971 
0.034463 
0.039187 
0.045777 
0.049455 
0.053438 
0.053593 
0.043875 
0.034454 
0.021231 
0.021333 
0.034428 
0.038134 
0.024086 
0.019962 
0.027938 
0.030121 
0.034649 
0.029285 
0.020610 
0.023164 
0.028353 
0.025056 
0.027248 
0.023143 
0.016196 
0.017809 
0.023453 
0.029653 
0.028350 
0.022782 
0.027195 
0.033422 
0.031633 
0.027198 
0.028677 
0.028459 
0.028670 
0.038857 
0.042009 
0.049700 
0.057137 
0.046625 
0.041930 
0.045758 
0.042891 
0.040986 
0.048903 
0.044132 
0.037537 
0.041267 
0.040647 
0.044097 
0.039400 
0.021846 
0.013862 
0.020922 
0.036918 
0.050648 
0.062416 
0.063549 
0.049796 
0.032736 
0.027348 
0.051298 
0.051854 
0.047070 
0.056380 
0.051453 
0.028228 
0.018259 
0.028902 
0.049423 
0.053100 
0.040278 
0.035617 
0.021174 
0.015267 
0.017522 
0.010316 
0.006325 
0.016896 
0.031901 
0.037404 
0.045821 
0.057191 
0.059043 
0.059632 
0.052160 
0.043441 
0.025047 
0.017717 
0.019576 
0.023188 
0.034012 
0.036428 
0.027971 
0.028076 
0.029788 
0.033828 
0.040867 
0.036865 
0.037987 
0.041812 
0.043459 
0.050687 
0.051316 
0.036376 
0.024409 
0.016030 
0.018676 
0.029932 
0.035868 
0.023648 
0.019749 
0.027299 
0.030139 
0.040786 
0.042970 
0.031574 
0.030609 
0.031133 
0.024274 
0.026790 
0.029631 
0.023554 
0.025634 
0.030157 
0.031593 
0.024048 
0.017009 
0.017820 
0.025405 
0.030639 
0.028206 
0.027735 
0.022334 
0.025751 
0.041718 
0.049152 
0.053541 
0.056464 
0.046533 
0.036112 
0.036232 
0.032252 
0.032435 
0.041571 
0.043280 
0.045466 
0.051078 
0.052172 
0.055884 
0.052997 
0.032285 
0.020447 
0.023797 
0.029778 
0.034436 
0.043943 
0.054373 
0.050678 
0.040626 
0.042510 
0.060507 
0.058453 
0.053422 
0.064952 
0.056491 
0.033853 
0.025362 
0.032961 
0.042572 
0.043889 
0.031238 
0.024559 
0.014022 
0.008527 
0.009577 
0.005161 
0.000000 
0.015178 
0.028712 
0.034515 
0.037099 
0.049805 
0.056960 
0.054219 
0.051700 
0.039076 
0.024255 
0.021443 
0.020609 
0.021902 
0.029826 
0.036083 
0.030397 
0.028974 
0.029741 
0.036951 
0.045782 
0.044049 
0.044130 
0.040990 
0.033659 
0.037303 
0.041003 
0.032718 
0.023064 
0.019063 
0.021831 
0.024923 
0.026222 
0.018101 
0.013870 
0.018371 
0.024797 
0.040095 
0.046074 
0.037760 
0.035116 
0.026226 
0.016899 
0.019413 
0.027501 
0.028691 
0.038853 
0.049046 
0.053042 
0.040322 
0.026238 
0.016788 
0.017074 
0.022412 
0.023936 
0.020852 
0.017720 
0.027993 
0.048748 
0.053235 
0.053835 
0.044551 
0.035170 
0.030343 
0.032858 
0.030119 
0.036391 
0.049423 
0.058200 
0.069276 
0.076865 
0.073168 
0.065648 
0.063714 
0.046771 
0.033411 
0.032551 
0.028663 
0.022064 
0.025028 
0.036952 
0.043133 
0.042357 
0.045441 
0.051358 
0.049236 
0.047746 
0.059860 
0.050512 
0.039837 
0.040149 
0.046594 
0.041697 
0.033153 
0.025825 
0.023314 
0.014050 
0.000000 
0.000000 
0.000000 
0.009667 
0.022294 
0.029916 
0.027831 
0.028674 
0.042202 
0.048673 
0.043851 
0.045200 
0.037119 
0.029801 
0.035974 
0.037520 
0.035046 
0.036924 
0.048398 
0.047343 
0.044888 
0.042334 
0.041409 
0.040111 
0.039579 
0.036211 
0.030809 
0.026481 
0.034143 
0.042445 
0.041329 
0.035906 
0.034862 
0.037491 
0.036943 
0.034804 
0.025549 
0.015101 
0.012888 
0.014948 
0.024954 
0.033550 
0.034964 
0.032030 
0.019328 
0.011754 
0.016656 
0.027187 
0.028155 
0.034101 
0.045889 
0.060667 
0.055346 
0.040530 
0.025451 
0.020308 
0.023162 
0.025271 
0.018501 
0.017688 
0.032463 
0.054131 
0.055365 
0.051366 
0.037658 
0.032842 
0.031306 
0.030936 
0.030469 
0.038583 
0.045746 
0.051765 
0.069691 
0.085669 
0.083471 
0.071850 
0.071136 
0.062607 
0.046884 
0.035891 
0.029380 
0.019822 
0.022311 
0.037238 
0.047577 
0.050414 
0.051908 
0.048329 
0.045643 
0.043856 
0.055192 
0.049381 
0.048956 
0.051390 
0.052952 
0.043875 
0.033641 
0.035844 
0.038958 
0.029731 
0.014317 
0.009981 
0.014493 
0.021841 
0.036179 
0.040910 
0.026230 
0.017794 
0.022759 
0.026931 
0.026706 
0.031366 
0.033823 
0.033631 
0.047804 
0.060055 
0.056268 
0.047895 
0.058069 
0.060760 
0.053888 
0.048586 
0.034911 
0.025243 
0.026470 
0.030149 
0.029789 
0.027844 
0.032449 
0.033393 
0.035609 
0.041686 
0.045908 
0.047332 
0.053093 
0.055296 
0.043158 
0.025041 
0.017746 
0.013609 
0.019148 
0.032422 
0.040959 
0.035456 
0.018579 
0.010418 
0.014754 
0.024650 
0.030945 
0.032756 
0.036908 
0.050063 
0.049012 
0.040115 
0.036902 
0.035902 
0.032852 
0.024781 
0.017729 
0.022526 
0.039214 
0.054132 
0.053146 
0.046226 
0.037100 
0.041323 
0.043032 
0.039986 
0.034779 
0.034430 
0.037134 
0.036884 
0.051911 
0.074768 
0.079111 
0.072395 
0.070770 
0.067722 
0.056282 
0.034184 
0.021813 
0.017416 
0.027793 
0.044965 
0.043959 
0.037940 
0.034030 
0.026174 
0.026116 
0.030369 
0.044942 
0.045298 
0.042795 
0.036119 
0.032056 
0.028927 
0.031930 
0.047959 
0.054693 
0.048684 
0.026926 
0.018411 
0.023372 
0.025245 
0.033017 
0.037679 
0.021428 
0.009545 
0.011555 
0.017749 
0.021677 
0.022321 
0.026469 
0.033185 
0.051969 
0.066482 
0.058613 
0.044932 
0.052506 
0.059111 
0.052607 
0.043970 
0.025304 
0.014401 
0.020042 
0.033084 
0.037402 
0.031699 
0.025105 
0.020379 
0.022633 
0.030853 
0.040512 
0.045394 
0.052273 
0.055071 
0.044099 
0.028694 
0.023966 
0.017003 
0.019735 
0.032843 
0.037119 
0.027166 
0.014100 
0.011922 
0.020893 
0.032674 
0.044906 
0.040533 
0.031030 
0.036073 
0.043141 
0.045335 
0.059841 
0.065888 
0.056728 
0.034672 
0.026774 
0.035925 
0.048222 
0.044419 
0.039015 
0.038229 
0.034777 
0.039446 
0.043442 
0.049041 
0.041654 
0.029870 
0.026690 
0.024695 
0.034252 
0.054846 
0.063286 
0.065238 
0.067289 
0.060436 
0.053174 
0.029406 
0.015751 
0.017920 
0.035999 
0.053995 
0.047835 
0.036468 
0.027708 
0.008465 
0.009429 
0.015104 
0.032025 
0.044489 
0.042456 
0.026783 
0.018201 
0.018962 
0.028098 
0.049428 
0.061217 
0.058776 
0.032053 
0.017742 
0.019745 
0.022804 
0.024997 
0.027486 
0.014351 
0.000000 
0.011186 
0.024522 
0.031532 
0.026936 
0.028702 
0.032452 
0.040566 
0.048934 
0.040424 
0.033722 
0.044986 
0.052637 
0.045510 
0.030852 
0.013959 
0.000000 
0.009224 
0.022053 
0.031016 
0.031379 
0.022783 
0.019193 
0.022290 
0.028017 
0.040545 
0.047028 
0.048643 
0.045469 
0.037578 
0.024189 
0.018850 
0.014168 
0.014890 
0.024566 
0.030298 
0.021560 
0.012542 
0.015732 
0.029854 
0.040793 
0.047612 
0.035973 
0.022404 
0.024917 
0.036955 
0.045765 
0.068190 
0.077359 
0.069317 
0.045545 
0.041628 
0.049860 
0.053470 
0.035562 
0.024705 
0.028071 
0.035129 
0.038907 
0.037369 
0.042179 
0.034979 
0.026412 
0.028197 
0.025768 
0.025009 
0.037709 
0.053085 
0.061463 
0.062902 
0.049006 
0.040909 
0.021670 
0.011352 
0.018696 
0.040175 
0.057416 
0.057293 
0.049688 
0.040530 
0.000000 
0.000000 
0.000000 
0.021895 
0.039945 
0.039754 
0.023727 
0.017355 
0.020915 
0.023766 
0.036661 
0.050412 
0.055915 
0.031832 
0.016656 
0.018027 
0.024663 
0.024572 
0.025160 
0.013651 
0.006613 
0.015447 
0.032295 
0.039637 
0.035219 
0.037662 
0.036045 
0.029785 
0.029157 
0.023486 
0.021919 
0.034410 
0.045101 
0.034388 
0.020024 
0.009999 
0.000000 
0.000000 
0.014696 
0.026083 
0.028520 
0.025419 
0.027831 
0.029400 
0.025625 
0.028595 
0.029783 
0.030917 
0.031284 
0.026047 
0.019524 
0.018419 
0.017504 
0.013065 
0.015095 
0.019992 
0.018398 
0.011456 
0.012786 
0.025300 
0.038805 
0.042997 
0.032447 
0.020396 
0.024519 
0.039580 
0.044465 
0.061269 
0.069451 
0.067666 
0.051451 
0.051488 
0.048266 
0.045095 
0.028103 
0.018335 
0.025165 
0.038278 
0.034187 
0.025309 
0.027045 
0.028455 
0.030533 
0.041345 
0.036329 
0.023601 
0.025144 
0.036939 
0.042682 
0.043980 
0.029607 
0.019767 
0.009006 
0.000000 
0.009257 
0.024997 
0.040055 
0.048629 
0.050690 
0.048904 
0.013665 
0.011312 
0.011819 
0.026753 
0.049202 
0.050016 
0.031628 
0.027801 
0.034621 
0.030719 
0.036894 
0.049344 
0.056203 
0.033942 
0.018993 
0.016077 
0.017848 
0.016863 
0.014880 
0.006536 
0.000000 
0.012566 
0.031077 
0.045446 
0.040911 
0.035320 
0.029009 
0.023056 
0.025541 
0.023733 
0.019949 
0.027733 
0.036747 
0.027482 
0.020541 
0.017962 
0.009931 
0.009057 
0.020661 
0.035983 
0.040077 
0.038423 
0.038206 
0.031658 
0.026254 
0.026285 
0.021681 
0.023391 
0.029994 
0.026433 
0.027427 
0.031439 
0.030841 
0.018991 
0.014378 
0.016990 
0.020005 
0.011784 
0.007747 
0.013858 
0.027446 
0.038031 
0.033843 
0.021361 
0.022804 
0.035177 
0.036795 
0.048963 
0.058110 
0.059043 
0.048943 
0.050369 
0.037635 
0.030561 
0.023477 
0.016948 
0.023144 
0.036274 
0.031157 
0.019708 
0.019970 
0.026843 
0.030125 
0.038996 
0.031423 
0.018582 
0.018874 
0.027854 
0.025993 
0.022126 
0.010902 
0.000000 
0.000000 
0.000000 
0.000000 
0.016301 
0.033854 
0.045951 
0.047399 
0.040053 
0.030481 
0.026386 
0.022551 
0.030622 
0.047872 
0.048314 
0.033864 
0.034345 
0.040928 
0.037969 
0.044762 
0.055581 
0.060249 
0.042445 
0.032261 
0.025328 
0.019639 
0.017460 
0.010671 
0.000000 
0.000000 
0.011371 
0.027989 
0.045912 
0.047510 
0.041898 
0.032873 
0.027358 
0.034386 
0.035156 
0.026195 
0.027341 
0.030010 
0.027663 
0.032019 
0.034499 
0.020924 
0.016922 
0.029308 
0.046241 
0.055063 
0.051053 
0.044341 
0.037352 
0.039246 
0.039818 
0.026352 
0.022957 
0.030357 
0.029974 
0.038327 
0.045101 
0.040456 
0.025001 
0.018279 
0.014220 
0.013045 
0.005879 
0.000000 
0.000000 
0.011059 
0.020529 
0.021099 
0.013793 
0.014341 
0.022489 
0.025954 
0.036209 
0.040593 
0.042341 
0.038432 
0.041346 
0.028614 
0.024396 
0.026779 
0.019655 
0.020258 
0.027348 
0.027090 
0.016364 
0.012650 
0.015815 
0.018904 
0.026698 
0.024345 
0.014498 
0.013211 
0.019217 
0.017812 
0.012772 
0.000000 
0.000000 
0.000000 
0.000000 
0.000000 
0.015418 
0.032236 
0.037027 
0.035287 
0.025867 
0.036241 
0.037437 
0.035819 
0.033320 
0.033576 
0.031515 
0.026604 
0.031939 
0.034693 
0.034572 
0.035622 
0.042951 
0.053755 
0.052976 
0.053690 
0.042597 
0.029776 
0.026484 
0.015915 
0.010169 
0.012923 
0.016614 
0.026241 
0.036239 
0.043531 
0.051061 
0.041847 
0.028828 
0.030642 
0.035169 
0.030253 
0.034446 
0.036625 
0.037445 
0.042065 
0.039944 
0.023938 
0.021198 
0.035428 
0.048341 
0.052039 
0.046277 
0.046970 
0.050226 
0.055925 
0.049701 
0.032093 
0.028040 
0.035575 
0.029527 
0.033715 
0.045096 
0.046812 
0.032200 
0.025010 
0.015471 
0.009664 
0.000000 
0.000000 
0.000000 
0.000000 
0.011310 
0.016197 
0.011993 
0.012797 
0.018349 
0.017764 
0.022432 
0.028092 
0.033993 
0.031911 
0.031729 
0.021563 
0.021054 
0.028608 
0.024124 
0.023599 
0.020352 
0.016840 
0.010765 
0.009178 
0.010058 
0.015245 
0.026329 
0.027752 
0.017232 
0.015462 
0.024227 
0.027963 
0.023117 
0.015167 
0.014184 
0.009239 
0.000000 
0.000000 
0.014462 
0.028401 
0.031140 
0.030490 
0.021504 
0.029340 
0.037246 
0.048724 
0.041961 
0.029578 
0.024400 
0.019496 
0.022522 
0.028825 
0.037635 
0.033242 
0.033057 
0.043840 
0.055633 
0.059061 
0.041854 
0.028423 
0.026716 
0.018174 
0.016733 
0.023736 
0.026344 
0.032530 
0.035043 
0.038976 
0.048729 
0.037395 
0.026260 
0.030260 
0.040408 
0.033465 
0.036234 
0.042407 
0.040411 
0.033081 
0.024329 
0.012603 
0.011006 
0.018259 
0.023898 
0.025241 
0.026316 
0.037802 
0.053465 
0.055292 
0.043383 
0.032280 
0.029906 
0.033839 
0.024783 
0.026477 
0.039837 
0.042311 
0.027062 
0.018905 
0.014235 
0.013525 
0.006515 
0.000000 
0.000000 
0.006204 
0.013484 
0.020613 
0.017073 
0.019433 
0.024665 
0.017965 
0.017113 
0.023084 
0.028034 
0.031234 
0.031458 
0.023074 
0.026957 
0.041129 
0.038658 
0.039440 
0.025982 
0.015035 
0.012616 
0.016073 
0.014247 
0.018576 
0.029781 
0.027276 
0.017817 
0.020562 
0.037469 
0.047950 
0.040691 
0.030468 
0.031308 
0.025142 
0.015766 
0.013559 
0.020807 
0.031326 
0.030716 
0.025196 
0.019069 
0.023710 
0.033744 
0.049925 
0.038869 
0.026846 
0.026147 
0.020625 
0.019180 
0.025542 
0.039829 
0.040870 
0.038452 
0.042713 
0.050629 
0.051565 
0.037584 
0.030845 
0.032567 
0.023469 
0.018847 
0.022283 
0.026288 
0.030007 
0.033051 
0.033010 
0.039080 
0.031255 
0.028633 
0.034975 
0.045243 
0.035512 
0.034891 
0.036492 
0.029227 
0.019912 
0.011183 
0.000000 
0.000000 
0.000000 
0.000000 
0.000000 
0.010211 
0.025357 
0.042352 
0.040401 
0.034210 
0.033622 
0.030399 
0.024779 
0.015141 
0.014003 
0.021840 
0.024072 
0.015496 
0.012452 
0.016105 
0.022268 
0.015025 
0.009272 
0.008989 
0.013412 
0.014775 
0.018379 
0.018212 
0.024304 
0.027138 
0.018462 
0.017546 
0.024490 
0.026204 
0.029973 
0.027378 
0.023505 
0.031924 
0.050115 
0.047943 
0.050425 
0.035381 
0.020962 
0.021760 
0.030558 
0.023984 
0.022324 
0.030828 
0.028252 
0.018799 
0.017981 
0.031135 
0.042992 
0.036118 
0.031379 
0.037745 
0.037881 
0.032067 
0.028815 
0.029238 