# vtk DataFile Version 3.0
results.vtk
ASCII
DATASET RECTILINEAR_GRID
DIMENSIONS 100 100 1
X_COORDINATES 100 double
0.000000 0.010000 0.020000 0.030000 0.040000 0.050000 0.060000 0.070000 0.080000 0.090000 0.100000 0.110000 0.120000 0.130000 0.140000 0.150000 0.160000 0.170000 0.180000 0.190000 0.200000 0.210000 0.220000 0.230000 0.240000 0.250000 0.260000 0.270000 0.280000 0.290000 0.300000 0.310000 0.320000 0.330000 0.340000 0.350000 0.360000 0.370000 0.380000 0.390000 0.400000 0.410000 0.420000 0.430000 0.440000 0.450000 0.460000 0.470000 0.480000 0.490000 0.500000 0.510000 0.520000 0.530000 0.540000 0.550000 0.560000 0.570000 0.580000 0.590000 0.600000 0.610000 0.620000 0.630000 0.640000 0.650000 0.660000 0.670000 0.680000 0.690000 0.700000 0.710000 0.720000 0.730000 0.740000 0.750000 0.760000 0.770000 0.780000 0.790000 0.800000 0.810000 0.820000 0.830000 0.840000 0.850000 0.860000 0.870000 0.880000 0.890000 0.900000 0.910000 0.920000 0.930000 0.940000 0.950000 0.960000 0.970000 0.980000 0.990000 
Y_COORDINATES 100 double
0.000000 0.010000 0.020000 0.030000 0.040000 0.050000 0.060000 0.070000 0.080000 0.090000 0.100000 0.110000 0.120000 0.130000 0.140000 0.150000 0.160000 0.170000 0.180000 0.190000 0.200000 0.210000 0.220000 0.230000 0.240000 0.250000 0.260000 0.270000 0.280000 0.290000 0.300000 0.310000 0.320000 0.330000 0.340000 0.350000 0.360000 0.370000 0.380000 0.390000 0.400000 0.410000 0.420000 0.430000 0.440000 0.450000 0.460000 0.470000 0.480000 0.490000 0.500000 0.510000 0.520000 0.530000 0.540000 0.550000 0.560000 0.570000 0.580000 0.590000 0.600000 0.610000 0.620000 0.630000 0.640000 0.650000 0.660000 0.670000 0.680000 0.690000 0.700000 0.710000 0.720000 0.730000 0.740000 0.750000 0.760000 0.770000 0.780000 0.790000 0.800000 0.810000 0.820000 0.830000 0.840000 0.850000 0.860000 0.870000 0.880000 0.890000 0.900000 0.910000 0.920000 0.930000 0.940000 0.950000 0.960000 0.970000 0.980000 0.990000 
Z_COORDINATES 1 double
0
POINT_DATA 10000 
FIELD FieldData 1 
Concentração 1 10000 double 
0.161797 
0.294048 
0.173117 
0.107556 
0.261455 
0.100280 
0.132176 
0.161851 
0.192029 
0.057622 
0.055489 
0.154697 
0.198985 
0.102181 
0.224893 
0.271261 
0.242665 
0.122743 
0.220539 
0.222910 
0.141693 
0.309439 
0.241969 
0.101853 
0.150707 
0.202253 
0.057769 
0.034568 
0.095484 
0.042090 
0.036180 
0.120040 
0.140991 
0.119711 
0.033586 
0.037064 
0.137529 
0.188335 
0.055543 
0.053962 
0.170614 
0.087083 
0.126016 
0.117893 
0.028687 
0.000000 
0.008283 
0.065161 
0.221551 
0.283001 
0.327592 
0.140476 
0.177232 
0.045998 
0.000000 
0.000000 
0.000000 
0.040516 
0.179969 
0.305114 
0.150200 
0.267822 
0.100386 
0.125848 
0.117331 
0.034484 
0.034511 
0.107696 
0.054396 
0.096192 
0.029282 
0.016139 
0.000000 
0.013252 
0.012677 
0.059603 
0.165949 
0.044767 
0.000000 
0.000000 
0.015770 
0.029456 
0.099354 
0.074705 
0.168961 
0.285143 
0.119763 
0.175340 
0.058868 
0.075252 
0.236818 
0.298273 
0.076975 
0.011111 
0.010397 
0.070497 
0.253108 
0.073937 
0.022424 
0.000000 
0.182274 
0.290613 
0.243290 
0.123469 
0.230773 
0.114429 
0.225977 
0.229406 
0.102438 
0.042641 
0.112524 
0.246925 
0.110779 
0.037953 
0.077305 
0.133309 
0.141303 
0.097987 
0.079363 
0.081857 
0.122282 
0.244543 
0.128847 
0.125005 
0.211715 
0.143235 
0.048109 
0.061785 
0.185139 
0.100687 
0.073883 
0.224958 
0.263677 
0.224084 
0.063473 
0.064575 
0.190219 
0.094622 
0.023019 
0.023746 
0.067320 
0.112669 
0.231999 
0.224068 
0.054954 
0.000000 
0.013675 
0.060994 
0.081098 
0.134254 
0.290603 
0.139320 
0.070368 
0.015452 
0.000000 
0.000000 
0.009427 
0.078284 
0.296756 
0.332010 
0.148118 
0.234350 
0.115261 
0.224734 
0.219490 
0.071310 
0.076333 
0.224233 
0.109091 
0.185519 
0.062672 
0.055084 
0.025835 
0.049620 
0.028869 
0.066651 
0.059739 
0.013401 
0.000000 
0.012385 
0.052469 
0.062451 
0.192528 
0.155083 
0.249761 
0.265641 
0.081446 
0.064979 
0.037870 
0.071657 
0.118251 
0.228568 
0.063515 
0.016866 
0.016663 
0.061829 
0.216516 
0.072552 
0.054288 
0.014381 
0.220625 
0.161826 
0.096390 
0.083922 
0.071509 
0.031175 
0.060983 
0.063275 
0.037146 
0.069874 
0.242365 
0.303008 
0.084801 
0.021419 
0.064500 
0.238629 
0.319304 
0.276653 
0.082770 
0.065809 
0.182731 
0.114935 
0.091683 
0.238948 
0.155394 
0.206450 
0.116615 
0.087620 
0.113001 
0.180770 
0.062389 
0.069100 
0.080624 
0.071494 
0.033265 
0.073743 
0.105994 
0.035484 
0.019199 
0.054326 
0.066541 
0.182173 
0.117003 
0.110922 
0.028001 
0.007254 
0.045181 
0.164949 
0.062688 
0.082894 
0.275832 
0.269848 
0.075162 
0.016734 
0.000000 
0.000000 
0.022925 
0.126175 
0.334045 
0.303512 
0.131159 
0.078416 
0.038454 
0.064973 
0.076091 
0.087433 
0.120746 
0.227331 
0.086224 
0.106318 
0.073858 
0.178821 
0.093284 
0.177134 
0.103851 
0.215803 
0.064922 
0.006640 
0.000000 
0.044587 
0.164668 
0.066357 
0.112293 
0.236434 
0.121251 
0.076586 
0.034559 
0.075782 
0.113944 
0.189045 
0.070648 
0.063704 
0.030648 
0.060751 
0.060360 
0.031400 
0.067771 
0.061934 
0.165091 
0.051576 
0.142317 
0.199041 
0.114595 
0.220073 
0.072949 
0.012928 
0.009273 
0.023803 
0.067615 
0.099696 
0.168915 
0.248151 
0.066059 
0.012496 
0.029529 
0.114669 
0.279438 
0.270224 
0.077528 
0.032797 
0.063970 
0.076087 
0.090397 
0.266117 
0.100738 
0.122519 
0.268774 
0.238041 
0.117967 
0.067180 
0.018739 
0.024968 
0.070550 
0.080233 
0.072021 
0.218360 
0.217531 
0.062931 
0.060112 
0.167580 
0.060352 
0.060644 
0.068745 
0.179597 
0.051099 
0.014226 
0.014769 
0.045463 
0.015626 
0.026768 
0.117317 
0.227517 
0.079967 
0.056021 
0.012918 
0.000000 
0.054897 
0.236948 
0.325548 
0.178470 
0.197952 
0.070217 
0.057198 
0.031254 
0.075085 
0.258959 
0.243717 
0.120875 
0.071304 
0.175457 
0.073300 
0.099315 
0.039735 
0.057137 
0.071049 
0.211671 
0.064981 
0.008941 
0.000000 
0.013079 
0.046639 
0.022357 
0.068345 
0.219967 
0.077379 
0.033361 
0.061477 
0.231638 
0.280510 
0.155872 
0.039316 
0.027101 
0.064121 
0.216402 
0.211799 
0.068483 
0.067693 
0.029649 
0.048230 
0.014486 
0.040444 
0.060744 
0.074743 
0.224202 
0.110485 
0.023788 
0.011382 
0.063960 
0.237781 
0.313872 
0.268786 
0.156241 
0.036807 
0.017213 
0.051332 
0.042407 
0.075297 
0.087897 
0.077711 
0.069114 
0.068618 
0.179573 
0.125052 
0.269429 
0.085043 
0.078154 
0.229443 
0.148928 
0.185384 
0.054808 
0.015008 
0.055504 
0.221416 
0.257149 
0.091760 
0.114092 
0.080561 
0.034603 
0.068744 
0.068345 
0.024722 
0.013561 
0.030439 
0.099867 
0.040130 
0.051431 
0.020747 
0.008606 
0.000000 
0.016451 
0.069087 
0.085602 
0.108886 
0.183971 
0.048388 
0.000000 
0.020422 
0.105391 
0.232541 
0.094542 
0.107805 
0.072562 
0.168798 
0.061426 
0.070690 
0.235975 
0.164871 
0.094287 
0.034949 
0.057225 
0.066792 
0.174268 
0.055729 
0.016712 
0.020037 
0.071107 
0.063310 
0.027516 
0.046847 
0.015431 
0.013865 
0.002165 
0.029523 
0.111890 
0.086923 
0.068937 
0.056026 
0.161410 
0.287421 
0.234097 
0.070888 
0.069962 
0.086561 
0.119272 
0.081523 
0.074670 
0.210728 
0.061933 
0.022720 
0.011212 
0.053961 
0.030794 
0.034717 
0.112842 
0.224237 
0.068658 
0.028771 
0.088538 
0.180422 
0.312984 
0.214497 
0.212248 
0.060333 
0.054903 
0.176213 
0.095784 
0.048173 
0.110202 
0.229371 
0.215691 
0.076970 
0.082504 
0.122519 
0.238166 
0.074985 
0.033384 
0.058535 
0.034002 
0.048847 
0.013223 
0.000000 
0.026981 
0.105432 
0.227155 
0.108742 
0.192232 
0.107990 
0.081218 
0.226431 
0.123009 
0.069138 
0.025988 
0.068853 
0.222728 
0.108732 
0.190044 
0.095125 
0.028225 
0.016525 
0.048265 
0.171790 
0.101484 
0.197589 
0.143062 
0.033651 
0.000000 
0.000000 
0.020943 
0.060153 
0.062452 
0.172983 
0.062304 
0.064980 
0.061274 
0.036480 
0.109590 
0.241633 
0.259466 
0.075732 
0.031929 
0.062723 
0.071382 
0.060032 
0.017160 
0.022709 
0.098467 
0.185120 
0.099646 
0.172468 
0.058741 
0.052940 
0.020832 
0.057198 
0.223882 
0.263745 
0.236109 
0.151500 
0.225737 
0.168260 
0.089625 
0.070346 
0.218514 
0.263592 
0.233599 
0.077755 
0.070066 
0.211380 
0.072831 
0.068569 
0.072844 
0.191557 
0.107142 
0.077440 
0.088450 
0.226575 
0.112702 
0.086539 
0.268341 
0.302253 
0.328381 
0.264053 
0.148809 
0.037262 
0.029764 
0.093189 
0.182031 
0.096822 
0.196814 
0.151395 
0.094283 
0.090612 
0.118404 
0.208637 
0.162364 
0.101105 
0.073007 
0.025715 
0.011436 
0.007181 
0.007437 
0.013816 
0.049116 
0.033766 
0.058340 
0.034554 
0.094141 
0.184636 
0.112484 
0.268244 
0.273241 
0.220248 
0.073632 
0.110738 
0.225630 
0.092495 
0.147012 
0.203503 
0.107581 
0.066480 
0.027666 
0.049770 
0.034164 
0.107010 
0.228500 
0.068044 
0.008221 
0.000000 
0.000000 
0.000000 
0.013552 
0.048631 
0.027953 
0.055484 
0.165136 
0.052017 
0.041814 
0.110253 
0.235803 
0.118268 
0.070350 
0.174223 
0.097397 
0.170966 
0.052456 
0.053673 
0.178213 
0.106878 
0.083991 
0.068553 
0.060336 
0.166394 
0.055966 
0.032983 
0.082661 
0.125090 
0.124001 
0.219146 
0.201106 
0.250764 
0.079419 
0.029550 
0.076112 
0.132778 
0.137915 
0.080938 
0.040244 
0.069280 
0.069014 
0.216812 
0.259151 
0.149766 
0.231586 
0.231894 
0.120516 
0.117831 
0.187717 
0.109517 
0.245456 
0.186471 
0.154735 
0.133184 
0.195900 
0.064481 
0.056604 
0.032598 
0.051292 
0.032698 
0.095398 
0.192986 
0.122037 
0.272214 
0.250235 
0.159473 
0.264580 
0.324082 
0.276484 
0.081030 
0.056586 
0.028370 
0.059754 
0.060323 
0.165239 
0.050571 
0.022094 
0.013312 
0.021081 
0.049515 
0.032605 
0.086994 
0.120223 
0.080009 
0.063832 
0.179597 
0.106099 
0.078919 
0.201294 
0.154466 
0.235434 
0.212655 
0.053862 
0.013594 
0.011132 
0.067054 
0.224318 
0.110177 
0.024168 
0.007088 
0.000000 
0.000000 
0.000000 
0.020521 
0.055454 
0.028509 
0.049773 
0.028412 
0.058956 
0.043919 
0.113842 
0.226275 
0.081658 
0.064212 
0.029005 
0.047213 
0.013808 
0.015237 
0.056077 
0.077355 
0.213109 
0.067394 
0.025167 
0.061006 
0.073194 
0.080828 
0.114136 
0.191790 
0.088904 
0.156488 
0.261265 
0.274411 
0.114691 
0.037910 
0.068933 
0.243640 
0.310163 
0.243481 
0.114364 
0.074370 
0.032292 
0.062706 
0.072253 
0.043587 
0.087596 
0.150928 
0.193243 
0.069012 
0.057344 
0.037181 
0.121872 
0.284463 
0.250862 
0.134132 
0.120434 
0.075537 
0.173533 
0.050174 
0.015409 
0.011508 
0.023599 
0.064910 
0.089545 
0.280711 
0.167827 
0.080070 
0.184458 
0.345570 
0.291862 
0.121090 
0.181587 
0.104742 
0.218275 
0.078893 
0.059939 
0.034809 
0.062096 
0.058654 
0.016779 
0.009538 
0.023301 
0.100137 
0.186959 
0.063764 
0.023167 
0.050179 
0.036043 
0.076752 
0.122334 
0.106332 
0.123612 
0.079345 
0.017703 
0.000000 
0.000000 
0.029295 
0.111911 
0.225863 
0.080816 
0.063135 
0.021156 
0.000000 
0.000000 
0.057810 
0.209533 
0.067136 
0.026569 
0.067981 
0.211580 
0.069374 
0.075777 
0.227245 
0.124671 
0.076404 
0.024870 
0.008226 
0.000000 
0.009852 
0.023413 
0.062687 
0.210324 
0.067607 
0.025340 
0.061600 
0.216303 
0.255734 
0.230041 
0.112663 
0.073405 
0.199903 
0.161599 
0.139782 
0.202339 
0.099694 
0.054716 
0.154461 
0.253889 
0.158694 
0.229112 
0.213100 
0.062922 
0.023532 
0.011443 
0.043143 
0.103347 
0.195928 
0.094808 
0.023379 
0.015991 
0.014979 
0.080443 
0.275111 
0.169323 
0.235462 
0.227304 
0.082622 
0.104919 
0.031440 
0.023946 
0.049604 
0.028737 
0.063473 
0.081236 
0.263969 
0.238718 
0.126522 
0.296215 
0.336518 
0.147919 
0.085211 
0.070635 
0.077195 
0.231136 
0.117778 
0.056198 
0.103541 
0.221148 
0.211630 
0.059257 
0.017111 
0.054676 
0.179225 
0.104222 
0.065243 
0.016870 
0.014334 
0.054842 
0.216905 
0.267052 
0.267253 
0.242204 
0.107724 
0.022119 
0.000000 
0.012729 
0.055717 
0.080716 
0.232288 
0.163048 
0.240795 
0.105398 
0.020314 
0.000000 
0.058775 
0.220280 
0.106700 
0.044698 
0.114852 
0.229576 
0.065205 
0.034487 
0.124221 
0.271160 
0.236181 
0.099461 
0.022051 
0.018441 
0.066875 
0.069124 
0.033515 
0.068519 
0.072689 
0.062135 
0.030543 
0.063891 
0.079488 
0.077932 
0.075557 
0.037921 
0.098076 
0.202300 
0.139381 
0.159817 
0.199269 
0.105731 
0.194717 
0.110059 
0.044081 
0.065335 
0.074804 
0.078942 
0.062358 
0.016817 
0.095254 
0.182821 
0.094466 
0.027440 
0.017262 
0.046940 
0.021020 
0.062389 
0.218558 
0.085056 
0.088436 
0.115073 
0.087359 
0.220274 
0.080824 
0.106013 
0.184232 
0.095451 
0.178346 
0.064505 
0.074476 
0.076655 
0.083624 
0.273017 
0.289603 
0.130995 
0.186235 
0.067816 
0.052365 
0.160527 
0.256853 
0.162118 
0.200358 
0.109518 
0.083753 
0.063959 
0.029062 
0.060659 
0.066311 
0.066053 
0.165787 
0.044902 
0.000000 
0.014153 
0.062552 
0.081906 
0.093529 
0.151493 
0.191908 
0.055968 
0.014096 
0.046350 
0.167592 
0.074206 
0.114219 
0.241850 
0.300601 
0.226668 
0.053220 
0.000000 
0.020298 
0.099552 
0.192844 
0.113784 
0.249939 
0.164652 
0.040553 
0.029637 
0.119827 
0.245581 
0.158279 
0.187049 
0.058308 
0.074883 
0.273279 
0.269901 
0.081881 
0.069681 
0.210699 
0.210132 
0.062868 
0.031031 
0.065288 
0.079631 
0.213168 
0.063235 
0.037381 
0.114267 
0.270317 
0.243354 
0.117367 
0.088455 
0.083826 
0.069797 
0.021707 
0.025954 
0.075328 
0.255284 
0.221685 
0.060740 
0.035043 
0.053413 
0.029009 
0.013669 
0.054938 
0.164398 
0.047214 
0.020886 
0.057749 
0.045511 
0.103623 
0.191768 
0.107812 
0.223225 
0.118152 
0.228583 
0.109320 
0.054882 
0.095756 
0.029628 
0.025579 
0.056415 
0.033602 
0.083674 
0.128543 
0.102036 
0.122161 
0.093080 
0.117984 
0.252382 
0.326808 
0.295732 
0.118581 
0.049225 
0.101842 
0.183895 
0.092850 
0.171318 
0.054690 
0.020971 
0.045383 
0.011740 
0.000000 
0.000000 
0.029979 
0.063984 
0.070284 
0.186912 
0.105231 
0.064372 
0.016452 
0.018245 
0.067099 
0.063643 
0.036603 
0.067306 
0.086149 
0.063723 
0.014134 
0.000000 
0.000000 
0.034907 
0.113789 
0.115420 
0.320544 
0.295284 
0.080531 
0.070638 
0.227665 
0.136842 
0.099887 
0.076545 
0.037399 
0.085147 
0.321111 
0.292510 
0.115836 
0.037545 
0.062841 
0.073774 
0.075251 
0.065384 
0.182665 
0.108706 
0.223987 
0.064014 
0.030008 
0.078060 
0.225937 
0.115024 
0.088059 
0.232347 
0.155265 
0.187309 
0.062044 
0.063488 
0.082785 
0.226497 
0.112428 
0.025250 
0.078699 
0.042600 
0.076520 
0.032577 
0.089775 
0.060800 
0.013247 
0.000000 
0.029427 
0.124176 
0.189913 
0.094400 
0.033940 
0.061514 
0.071796 
0.211244 
0.085042 
0.126988 
0.189237 
0.056890 
0.058840 
0.165501 
0.061530 
0.074652 
0.223071 
0.260749 
0.268883 
0.260214 
0.229549 
0.136009 
0.212736 
0.308677 
0.088797 
0.059401 
0.176445 
0.097837 
0.033774 
0.054906 
0.020323 
0.000000 
0.000000 
0.000000 
0.000000 
0.026617 
0.116387 
0.177843 
0.060434 
0.060696 
0.064617 
0.164136 
0.048299 
0.035030 
0.122321 
0.177717 
0.050652 
0.029918 
0.081911 
0.028972 
0.000000 
0.000000 
0.000000 
0.063269 
0.260393 
0.200399 
0.313787 
0.344790 
0.091284 
0.076569 
0.232518 
0.195226 
0.273418 
0.154813 
0.110555 
0.094683 
0.304270 
0.170981 
0.192271 
0.057992 
0.025117 
0.074599 
0.236874 
0.087681 
0.127706 
0.064749 
0.133572 
0.047071 
0.090693 
0.101187 
0.077922 
0.038723 
0.069374 
0.252386 
0.231092 
0.104796 
0.067627 
0.186297 
0.133312 
0.095326 
0.093748 
0.020063 
0.360535 
0.169962 
0.351897 
0.123077 
0.393858 
0.070383 
0.001239 
0.001612 
0.071626 
0.397248 
0.104241 
0.023650 
0.000000 
0.000000 
0.010035 
0.046339 
0.067810 
0.350986 
0.150047 
0.033767 
0.072447 
0.062233 
0.077109 
0.081196 
0.058530 
0.060404 
0.056517 
0.055590 
0.057231 
0.078567 
0.405639 
0.431635 
0.072959 
0.020860 
0.053126 
0.070794 
0.022980 
0.071075 
0.067095 
0.015844 
0.015158 
0.058196 
0.028298 
0.115032 
0.354378 
0.094396 
0.014778 
0.012111 
0.015406 
0.038646 
0.022433 
0.114068 
0.350914 
0.098586 
0.018824 
0.058701 
0.342074 
0.112516 
0.014014 
0.000000 
0.000399 
0.069072 
0.427304 
0.422139 
0.234602 
0.454135 
0.088141 
0.078043 
0.118380 
0.413301 
0.487806 
0.467751 
0.455841 
0.137506 
0.387692 
0.091161 
0.109925 
0.080143 
0.027796 
0.122771 
0.388492 
0.129264 
0.359449 
0.185225 
0.413207 
0.129707 
0.399516 
0.400716 
0.131962 
0.073391 
0.021048 
0.050744 
0.048274 
0.021787 
0.031008 
0.156164 
0.370974 
0.176365 
0.348369 
0.062459 
0.170258 
0.358841 
0.119496 
0.084960 
0.392425 
0.065817 
0.000816 
0.014813 
0.126012 
0.402199 
0.080295 
0.066747 
0.009353 
0.000000 
0.000000 
0.000000 
0.014153 
0.112977 
0.353042 
0.124175 
0.406199 
0.190037 
0.412296 
0.448623 
0.085206 
0.071149 
0.015770 
0.014674 
0.060743 
0.021334 
0.072656 
0.075326 
0.022010 
0.071258 
0.124352 
0.346854 
0.121806 
0.392177 
0.396463 
0.130175 
0.127238 
0.359864 
0.174476 
0.363593 
0.168564 
0.027481 
0.011875 
0.066014 
0.070547 
0.018861 
0.058658 
0.344908 
0.122191 
0.074254 
0.016568 
0.015254 
0.112301 
0.344760 
0.066405 
0.060751 
0.014181 
0.011719 
0.073841 
0.128011 
0.410222 
0.451311 
0.126976 
0.346761 
0.126304 
0.086579 
0.086164 
0.136441 
0.398282 
0.085769 
0.126862 
0.086863 
0.402162 
0.452135 
0.132405 
0.356845 
0.181337 
0.095045 
0.137724 
0.461088 
0.453557 
0.090723 
0.131841 
0.136228 
0.402288 
0.392190 
0.061872 
0.008977 
0.014627 
0.071634 
0.132514 
0.423341 
0.239527 
0.369500 
0.114899 
0.020435 
0.048535 
0.120722 
0.036158 
0.083221 
0.130765 
0.020813 
0.003734 
0.066565 
0.405959 
0.190894 
0.090868 
0.387445 
0.065526 
0.014177 
0.055305 
0.007979 
0.000000 
0.023469 
0.118624 
0.093958 
0.453895 
0.467322 
0.205561 
0.463266 
0.145516 
0.393108 
0.070259 
0.061512 
0.331319 
0.066570 
0.075487 
0.076142 
0.071392 
0.387396 
0.395949 
0.127081 
0.085150 
0.082211 
0.131674 
0.402918 
0.411275 
0.237366 
0.423452 
0.178882 
0.349843 
0.062525 
0.065978 
0.394984 
0.440989 
0.071295 
0.024548 
0.116946 
0.080636 
0.347254 
0.116793 
0.017474 
0.029229 
0.117401 
0.075122 
0.340759 
0.111326 
0.015085 
0.012173 
0.021737 
0.072686 
0.072092 
0.024998 
0.112774 
0.349674 
0.118356 
0.030900 
0.072638 
0.075410 
0.069030 
0.351243 
0.129369 
0.149982 
0.462555 
0.145127 
0.133114 
0.405874 
0.394274 
0.131997 
0.407165 
0.136686 
0.078904 
0.344936 
0.087365 
0.137087 
0.135127 
0.021174 
0.005095 
0.065329 
0.392258 
0.456018 
0.513037 
0.478811 
0.184424 
0.039660 
0.068016 
0.188096 
0.411272 
0.138340 
0.461704 
0.456391 
0.071790 
0.011604 
0.075697 
0.452445 
0.460815 
0.136151 
0.391744 
0.069785 
0.060776 
0.330021 
0.055291 
0.008091 
0.057734 
0.345408 
0.127660 
0.141270 
0.417831 
0.198353 
0.422265 
0.192058 
0.401491 
0.067595 
0.019591 
0.061829 
0.070015 
0.387372 
0.391635 
0.072327 
0.075172 
0.073310 
0.084744 
0.390300 
0.086264 
0.087124 
0.136080 
0.137027 
0.411601 
0.449678 
0.089352 
0.063458 
0.010934 
0.019954 
0.121445 
0.395358 
0.070662 
0.061814 
0.336755 
0.080784 
0.180790 
0.405408 
0.080862 
0.118013 
0.345318 
0.071152 
0.116642 
0.344960 
0.067258 
0.070824 
0.076494 
0.077060 
0.021894 
0.007246 
0.019072 
0.112133 
0.345048 
0.116953 
0.336599 
0.062695 
0.029711 
0.173416 
0.366444 
0.192578 
0.461522 
0.399410 
0.085730 
0.126712 
0.077138 
0.036202 
0.128852 
0.092012 
0.092812 
0.142732 
0.143265 
0.413261 
0.452952 
0.077009 
0.016514 
0.066861 
0.080115 
0.082314 
0.140225 
0.454311 
0.410992 
0.128743 
0.397195 
0.466672 
0.458918 
0.151374 
0.516663 
0.461888 
0.077671 
0.022265 
0.077799 
0.140131 
0.398364 
0.077050 
0.070508 
0.011083 
0.008855 
0.054965 
0.007962 
0.000000 
0.019213 
0.117197 
0.342910 
0.086428 
0.187440 
0.421169 
0.192877 
0.412093 
0.131756 
0.025747 
0.058617 
0.020427 
0.017849 
0.076076 
0.126878 
0.035418 
0.065472 
0.034778 
0.124194 
0.409287 
0.181851 
0.401767 
0.393266 
0.077708 
0.086637 
0.135807 
0.077787 
0.021668 
0.015987 
0.058835 
0.029668 
0.068318 
0.015980 
0.010113 
0.060931 
0.071109 
0.400556 
0.447570 
0.131524 
0.350492 
0.112487 
0.015691 
0.024369 
0.116878 
0.079626 
0.392869 
0.452025 
0.460783 
0.136018 
0.070679 
0.011593 
0.015380 
0.066737 
0.074339 
0.065941 
0.015535 
0.068660 
0.410568 
0.192553 
0.412712 
0.137118 
0.081644 
0.072794 
0.338499 
0.075946 
0.123328 
0.410609 
0.458885 
0.517943 
0.531794 
0.478910 
0.207319 
0.467976 
0.141315 
0.077801 
0.342063 
0.116739 
0.020980 
0.018919 
0.085745 
0.133389 
0.095537 
0.141599 
0.150736 
0.142610 
0.097875 
0.463074 
0.146904 
0.087312 
0.131846 
0.406570 
0.136462 
0.077654 
0.026321 
0.063225 
0.014585 
0.000000 
0.000000 
0.000000 
0.009678 
0.067110 
0.083936 
0.072380 
0.072387 
0.400921 
0.448171 
0.140617 
0.402441 
0.130601 
0.072908 
0.346794 
0.127593 
0.081600 
0.082816 
0.406941 
0.182772 
0.361027 
0.173902 
0.359685 
0.173271 
0.355737 
0.127143 
0.076611 
0.026772 
0.122336 
0.401360 
0.397497 
0.130229 
0.126481 
0.350929 
0.124205 
0.088790 
0.067718 
0.010624 
0.009657 
0.010619 
0.067512 
0.085308 
0.086267 
0.122142 
0.023937 
0.003520 
0.056680 
0.336357 
0.072605 
0.081790 
0.145256 
0.512126 
0.465195 
0.393378 
0.066734 
0.016814 
0.066438 
0.332314 
0.060596 
0.011941 
0.080659 
0.457665 
0.200334 
0.408264 
0.082912 
0.077219 
0.076674 
0.076648 
0.073226 
0.351424 
0.182195 
0.150593 
0.477962 
0.587064 
0.537888 
0.213514 
0.477712 
0.464309 
0.145134 
0.127098 
0.340692 
0.057780 
0.020979 
0.127143 
0.406470 
0.448746 
0.456250 
0.447932 
0.402288 
0.136868 
0.457580 
0.146394 
0.403856 
0.456214 
0.501344 
0.401919 
0.081309 
0.123295 
0.355454 
0.117602 
0.015039 
0.009528 
0.060188 
0.070475 
0.395645 
0.442265 
0.075125 
0.015970 
0.066114 
0.071754 
0.030618 
0.117622 
0.342571 
0.081320 
0.187027 
0.474198 
0.458524 
0.142075 
0.462252 
0.467321 
0.196408 
0.410766 
0.123191 
0.029803 
0.068418 
0.080182 
0.076752 
0.072150 
0.342235 
0.125778 
0.130197 
0.397720 
0.406140 
0.183404 
0.419430 
0.499438 
0.405057 
0.071312 
0.060687 
0.010338 
0.020232 
0.122367 
0.401092 
0.391728 
0.060976 
0.001549 
0.014428 
0.067778 
0.080269 
0.077654 
0.083051 
0.411318 
0.187345 
0.090932 
0.082790 
0.082275 
0.081173 
0.066744 
0.011762 
0.021053 
0.131737 
0.457510 
0.416367 
0.182089 
0.086210 
0.393320 
0.398061 
0.135684 
0.085603 
0.122563 
0.347089 
0.078973 
0.146821 
0.527423 
0.529073 
0.433867 
0.253817 
0.476570 
0.458515 
0.085329 
0.062365 
0.015501 
0.072000 
0.402241 
0.137272 
0.086295 
0.077669 
0.074838 
0.071272 
0.076718 
0.402226 
0.141400 
0.136584 
0.086298 
0.080794 
0.072393 
0.077333 
0.410507 
0.241678 
0.414781 
0.072208 
0.061079 
0.331982 
0.075153 
0.126651 
0.399753 
0.066405 
0.001224 
0.003940 
0.019342 
0.059073 
0.024734 
0.067797 
0.077899 
0.415882 
0.562170 
0.466292 
0.096573 
0.188516 
0.425783 
0.192528 
0.401931 
0.070933 
0.011370 
0.065198 
0.387305 
0.396122 
0.125274 
0.070807 
0.017244 
0.021653 
0.076816 
0.132568 
0.104021 
0.189310 
0.424205 
0.182296 
0.079824 
0.332003 
0.060490 
0.062044 
0.349857 
0.176030 
0.079338 
0.010716 
0.008997 
0.062661 
0.088400 
0.443631 
0.396605 
0.076364 
0.123074 
0.356673 
0.134230 
0.466247 
0.517366 
0.461736 
0.078145 
0.026272 
0.123206 
0.410716 
0.141100 
0.127792 
0.347802 
0.082020 
0.131859 
0.144181 
0.452220 
0.397532 
0.076114 
0.067767 
0.021708 
0.074075 
0.412746 
0.206465 
0.203917 
0.432149 
0.202636 
0.456830 
0.076341 
0.011028 
0.016049 
0.130610 
0.461272 
0.145839 
0.078753 
0.022952 
0.000000 
0.001550 
0.015124 
0.121655 
0.402201 
0.397591 
0.067488 
0.011695 
0.015993 
0.071640 
0.448445 
0.474766 
0.507743 
0.080884 
0.016121 
0.065298 
0.067288 
0.034154 
0.117292 
0.019138 
0.000000 
0.013533 
0.112078 
0.345161 
0.068647 
0.075629 
0.080971 
0.132573 
0.410973 
0.131871 
0.074068 
0.361026 
0.233306 
0.365277 
0.117719 
0.014622 
0.000000 
0.009573 
0.070224 
0.125225 
0.341964 
0.063002 
0.019871 
0.062701 
0.075541 
0.396812 
0.444052 
0.410605 
0.182625 
0.351360 
0.067154 
0.061367 
0.014757 
0.014921 
0.111894 
0.345441 
0.066626 
0.009706 
0.056579 
0.344786 
0.177811 
0.414295 
0.127040 
0.017648 
0.025709 
0.123557 
0.100057 
0.514849 
0.539475 
0.518748 
0.096457 
0.129026 
0.414652 
0.498219 
0.085815 
0.022211 
0.071905 
0.126443 
0.352083 
0.127654 
0.401159 
0.126410 
0.027390 
0.075541 
0.067633 
0.025588 
0.123619 
0.412390 
0.467173 
0.508767 
0.149941 
0.397450 
0.066115 
0.009547 
0.061333 
0.400545 
0.507000 
0.462407 
0.407467 
0.131655 
0.000000 
0.000000 
0.000000 
0.025755 
0.136072 
0.135602 
0.021900 
0.011406 
0.061401 
0.021985 
0.082388 
0.147315 
0.461666 
0.076989 
0.011120 
0.060947 
0.335508 
0.112397 
0.339557 
0.056500 
0.008118 
0.057101 
0.349627 
0.177054 
0.089262 
0.388761 
0.387585 
0.076082 
0.072626 
0.021697 
0.016964 
0.122658 
0.409186 
0.122913 
0.020337 
0.003438 
0.000000 
0.000000 
0.015401 
0.071564 
0.072618 
0.029914 
0.113025 
0.340331 
0.067903 
0.075805 
0.076280 
0.077031 
0.080473 
0.067750 
0.016817 
0.020003 
0.057305 
0.009917 
0.015153 
0.065935 
0.065120 
0.009856 
0.013908 
0.112596 
0.359489 
0.182204 
0.084718 
0.017070 
0.067084 
0.395913 
0.134142 
0.426221 
0.257875 
0.476596 
0.143796 
0.411455 
0.187265 
0.405839 
0.072058 
0.012057 
0.070757 
0.396372 
0.126330 
0.026641 
0.071860 
0.076210 
0.080594 
0.442084 
0.395175 
0.063431 
0.029631 
0.127376 
0.140315 
0.401937 
0.076834 
0.065706 
0.009328 
0.000000 
0.009121 
0.067971 
0.095118 
0.146539 
0.191306 
0.407385 
0.056670 
0.013612 
0.005170 
0.071639 
0.455806 
0.456108 
0.077483 
0.075395 
0.387405 
0.076576 
0.082640 
0.146589 
0.461673 
0.077823 
0.012011 
0.014925 
0.057852 
0.023224 
0.057089 
0.008119 
0.000000 
0.014176 
0.122174 
0.409700 
0.133021 
0.085682 
0.072433 
0.021955 
0.070860 
0.066611 
0.016788 
0.075234 
0.388456 
0.071672 
0.021023 
0.060957 
0.009047 
0.001554 
0.061958 
0.347609 
0.135543 
0.128329 
0.354568 
0.114679 
0.030004 
0.067918 
0.021006 
0.062875 
0.337619 
0.071609 
0.075242 
0.122022 
0.345073 
0.058095 
0.014628 
0.061198 
0.330638 
0.055062 
0.001923 
0.018591 
0.117237 
0.399800 
0.387774 
0.065707 
0.069882 
0.388067 
0.089596 
0.183558 
0.421506 
0.459377 
0.145757 
0.448738 
0.090277 
0.077013 
0.066639 
0.015236 
0.066972 
0.395603 
0.125387 
0.020795 
0.061883 
0.336495 
0.121335 
0.400469 
0.125605 
0.019961 
0.057665 
0.336573 
0.071494 
0.066171 
0.009999 
0.000000 
0.000000 
0.000000 
0.000000 
0.019527 
0.122720 
0.402779 
0.406842 
0.131873 
0.348625 
0.112907 
0.025176 
0.076969 
0.451529 
0.451955 
0.085333 
0.126551 
0.400844 
0.131279 
0.398433 
0.461213 
0.507858 
0.095714 
0.077247 
0.067601 
0.024092 
0.058042 
0.013582 
0.000000 
0.000000 
0.005431 
0.078945 
0.443933 
0.406743 
0.136663 
0.081231 
0.071671 
0.387416 
0.391255 
0.071324 
0.071905 
0.076540 
0.031337 
0.122105 
0.394784 
0.066290 
0.015932 
0.080207 
0.190108 
0.462176 
0.415233 
0.174940 
0.048934 
0.128580 
0.396149 
0.067931 
0.025413 
0.121107 
0.080161 
0.389464 
0.409659 
0.177526 
0.033715 
0.058125 
0.018681 
0.056309 
0.008016 
0.000000 
0.000000 
0.014280 
0.066549 
0.069546 
0.010486 
0.010764 
0.069668 
0.068122 
0.346832 
0.132326 
0.135950 
0.087341 
0.396881 
0.072380 
0.066986 
0.336055 
0.058242 
0.024336 
0.116828 
0.340296 
0.056969 
0.013763 
0.056366 
0.020667 
0.075800 
0.071112 
0.010690 
0.009828 
0.061301 
0.016365 
0.010287 
0.000000 
0.000000 
0.000000 
0.000000 
0.000000 
0.057136 
0.345826 
0.131215 
0.126432 
0.026651 
0.168363 
0.354971 
0.126960 
0.081201 
0.081939 
0.080740 
0.068245 
0.341869 
0.126815 
0.085266 
0.082120 
0.132977 
0.416092 
0.192430 
0.460555 
0.401457 
0.117708 
0.339719 
0.057470 
0.013526 
0.055896 
0.019349 
0.068256 
0.089607 
0.137702 
0.455953 
0.397599 
0.072456 
0.080427 
0.130089 
0.076837 
0.343135 
0.130458 
0.131124 
0.405204 
0.441996 
0.074463 
0.066150 
0.392007 
0.456027 
0.460589 
0.182909 
0.365707 
0.187968 
0.464995 
0.452506 
0.080816 
0.072579 
0.391061 
0.076936 
0.085372 
0.186270 
0.413939 
0.122785 
0.335608 
0.057245 
0.013489 
0.000000 
0.000000 
0.000000 
0.000000 
0.014265 
0.060478 
0.009630 
0.009959 
0.061095 
0.019628 
0.062948 
0.075416 
0.339701 
0.080800 
0.121309 
0.021166 
0.021111 
0.116615 
0.029601 
0.063381 
0.024566 
0.056985 
0.008605 
0.000416 
0.001369 
0.014850 
0.116000 
0.340615 
0.057108 
0.015076 
0.070993 
0.079383 
0.067046 
0.019256 
0.056674 
0.013490 
0.000000 
0.000000 
0.018942 
0.117066 
0.084483 
0.338112 
0.061846 
0.035284 
0.128269 
0.450685 
0.393337 
0.076537 
0.067268 
0.020476 
0.063365 
0.079636 
0.384009 
0.077677 
0.032933 
0.130379 
0.416263 
0.503124 
0.137004 
0.035286 
0.113032 
0.023850 
0.057548 
0.330757 
0.116498 
0.341352 
0.123530 
0.095043 
0.447797 
0.131501 
0.026961 
0.073570 
0.392159 
0.082003 
0.127438 
0.396992 
0.392599 
0.126603 
0.074795 
0.011047 
0.009993 
0.065774 
0.075558 
0.072442 
0.030806 
0.128327 
0.456224 
0.457730 
0.141243 
0.078078 
0.080417 
0.383147 
0.070892 
0.072038 
0.395931 
0.438476 
0.079189 
0.062264 
0.018928 
0.056504 
0.008256 
0.000000 
0.000000 
0.008197 
0.056319 
0.325965 
0.060961 
0.065676 
0.331237 
0.057898 
0.019619 
0.067352 
0.079970 
0.122092 
0.340747 
0.063085 
0.071777 
0.396230 
0.132330 
0.391881 
0.071756 
0.010946 
0.010043 
0.060067 
0.014785 
0.057918 
0.340409 
0.117159 
0.020022 
0.062305 
0.395052 
0.491956 
0.399669 
0.118573 
0.344453 
0.112734 
0.019661 
0.011306 
0.062644 
0.340972 
0.121634 
0.071328 
0.016782 
0.014435 
0.081540 
0.451627 
0.135584 
0.071768 
0.327786 
0.062229 
0.020479 
0.068008 
0.391930 
0.136191 
0.083926 
0.095846 
0.188031 
0.407451 
0.083078 
0.069659 
0.337143 
0.063574 
0.020466 
0.067115 
0.079241 
0.121593 
0.341630 
0.122472 
0.391855 
0.080969 
0.069226 
0.089385 
0.438897 
0.086485 
0.086412 
0.131150 
0.076904 
0.020996 
0.005250 
0.000000 
0.000000 
0.000000 
0.000000 
0.000000 
0.004448 
0.071227 
0.396814 
0.132784 
0.082139 
0.338284 
0.121424 
0.074709 
0.011307 
0.010406 
0.066680 
0.074443 
0.011764 
0.009388 
0.057170 
0.330008 
0.057039 
0.009068 
0.009227 
0.056042 
0.019397 
0.061855 
0.021029 
0.075195 
0.120650 
0.024326 
0.057861 
0.330854 
0.116483 
0.340265 
0.112968 
0.025624 
0.077571 
0.447856 
0.150472 
0.451917 
0.130540 
0.021548 
0.066296 
0.381472 
0.071241 
0.025964 
0.121868 
0.080004 
0.017132 
0.016214 
0.121992 
0.404357 
0.124659 
0.043580 
0.169414 
0.354442 
0.122794 
0.080236 
0.080546 