# vtk DataFile Version 3.0
results.vtk
ASCII
DATASET RECTILINEAR_GRID
DIMENSIONS 100 100 1
X_COORDINATES 100 double
0.000000 0.010000 0.020000 0.030000 0.040000 0.050000 0.060000 0.070000 0.080000 0.090000 0.100000 0.110000 0.120000 0.130000 0.140000 0.150000 0.160000 0.170000 0.180000 0.190000 0.200000 0.210000 0.220000 0.230000 0.240000 0.250000 0.260000 0.270000 0.280000 0.290000 0.300000 0.310000 0.320000 0.330000 0.340000 0.350000 0.360000 0.370000 0.380000 0.390000 0.400000 0.410000 0.420000 0.430000 0.440000 0.450000 0.460000 0.470000 0.480000 0.490000 0.500000 0.510000 0.520000 0.530000 0.540000 0.550000 0.560000 0.570000 0.580000 0.590000 0.600000 0.610000 0.620000 0.630000 0.640000 0.650000 0.660000 0.670000 0.680000 0.690000 0.700000 0.710000 0.720000 0.730000 0.740000 0.750000 0.760000 0.770000 0.780000 0.790000 0.800000 0.810000 0.820000 0.830000 0.840000 0.850000 0.860000 0.870000 0.880000 0.890000 0.900000 0.910000 0.920000 0.930000 0.940000 0.950000 0.960000 0.970000 0.980000 0.990000 
Y_COORDINATES 100 double
0.000000 0.010000 0.020000 0.030000 0.040000 0.050000 0.060000 0.070000 0.080000 0.090000 0.100000 0.110000 0.120000 0.130000 0.140000 0.150000 0.160000 0.170000 0.180000 0.190000 0.200000 0.210000 0.220000 0.230000 0.240000 0.250000 0.260000 0.270000 0.280000 0.290000 0.300000 0.310000 0.320000 0.330000 0.340000 0.350000 0.360000 0.370000 0.380000 0.390000 0.400000 0.410000 0.420000 0.430000 0.440000 0.450000 0.460000 0.470000 0.480000 0.490000 0.500000 0.510000 0.520000 0.530000 0.540000 0.550000 0.560000 0.570000 0.580000 0.590000 0.600000 0.610000 0.620000 0.630000 0.640000 0.650000 0.660000 0.670000 0.680000 0.690000 0.700000 0.710000 0.720000 0.730000 0.740000 0.750000 0.760000 0.770000 0.780000 0.790000 0.800000 0.810000 0.820000 0.830000 0.840000 0.850000 0.860000 0.870000 0.880000 0.890000 0.900000 0.910000 0.920000 0.930000 0.940000 0.950000 0.960000 0.970000 0.980000 0.990000 
Z_COORDINATES 1 double
0
POINT_DATA 10000 
FIELD FieldData 1 
Concentração 1 10000 double 
0.063342 
0.067943 
0.056914 
0.046618 
0.051278 
0.041581 
0.044754 
0.046285 
0.037974 
0.026953 
0.033173 
0.046515 
0.041708 
0.033257 
0.043187 
0.054686 
0.054322 
0.044558 
0.043305 
0.044259 
0.048657 
0.061087 
0.053647 
0.044828 
0.046748 
0.042522 
0.026620 
0.022638 
0.029095 
0.025234 
0.025693 
0.039905 
0.046664 
0.039334 
0.023703 
0.023670 
0.035407 
0.032846 
0.019931 
0.019120 
0.029084 
0.034628 
0.041828 
0.036867 
0.016621 
0.000000 
0.008129 
0.022971 
0.041962 
0.059103 
0.068811 
0.050383 
0.032934 
0.013675 
0.000000 
0.000000 
0.000000 
0.027010 
0.059573 
0.072446 
0.058316 
0.055450 
0.042125 
0.042109 
0.037800 
0.025163 
0.025216 
0.034936 
0.030492 
0.029620 
0.018923 
0.012998 
0.009116 
0.010639 
0.012755 
0.020432 
0.023090 
0.011222 
0.000000 
0.000000 
0.010786 
0.019138 
0.033244 
0.041241 
0.053852 
0.057842 
0.039750 
0.031927 
0.024842 
0.030680 
0.046327 
0.051499 
0.028101 
0.012574 
0.011904 
0.024669 
0.040958 
0.026949 
0.013794 
0.000000 
0.062172 
0.065060 
0.055316 
0.044678 
0.045880 
0.038111 
0.043015 
0.043140 
0.033002 
0.027544 
0.039580 
0.051326 
0.037594 
0.025524 
0.032845 
0.047102 
0.051758 
0.043640 
0.035406 
0.034717 
0.042578 
0.052452 
0.046930 
0.046105 
0.048319 
0.042572 
0.029255 
0.027046 
0.034219 
0.030772 
0.029056 
0.042138 
0.048965 
0.041692 
0.026022 
0.026099 
0.034940 
0.027444 
0.016196 
0.016428 
0.025249 
0.035702 
0.044996 
0.040329 
0.018453 
0.000000 
0.008976 
0.021424 
0.032361 
0.047500 
0.062864 
0.049224 
0.028719 
0.011200 
0.000000 
0.000000 
0.009475 
0.033757 
0.066721 
0.074344 
0.056457 
0.050000 
0.039469 
0.042579 
0.040544 
0.030343 
0.031974 
0.042140 
0.035582 
0.034216 
0.023746 
0.019458 
0.015256 
0.017034 
0.017843 
0.023363 
0.019653 
0.008428 
0.000000 
0.006375 
0.016030 
0.023225 
0.038136 
0.047123 
0.054108 
0.051722 
0.033715 
0.027398 
0.025073 
0.030242 
0.038060 
0.041863 
0.024603 
0.014126 
0.013736 
0.022765 
0.035995 
0.026025 
0.017944 
0.009162 
0.053734 
0.051626 
0.042297 
0.036416 
0.030206 
0.021757 
0.023464 
0.025160 
0.024918 
0.032237 
0.050858 
0.057125 
0.033838 
0.019352 
0.027258 
0.049343 
0.063673 
0.056265 
0.035372 
0.028703 
0.036078 
0.039474 
0.040679 
0.051060 
0.048194 
0.046028 
0.040235 
0.035969 
0.035971 
0.032569 
0.024219 
0.027372 
0.032139 
0.029847 
0.023587 
0.028725 
0.032111 
0.021587 
0.015587 
0.019271 
0.024172 
0.033417 
0.036381 
0.033298 
0.017080 
0.007894 
0.012755 
0.022759 
0.023887 
0.034490 
0.054911 
0.052443 
0.029777 
0.012459 
0.000000 
0.000000 
0.015053 
0.042636 
0.071575 
0.070017 
0.049444 
0.034812 
0.025842 
0.027272 
0.031241 
0.035837 
0.040986 
0.044732 
0.034451 
0.032820 
0.027815 
0.029979 
0.025580 
0.028284 
0.029136 
0.034890 
0.021769 
0.007736 
0.000000 
0.010609 
0.021709 
0.023567 
0.035089 
0.047080 
0.041586 
0.032763 
0.025512 
0.031536 
0.037722 
0.038145 
0.029436 
0.025806 
0.020501 
0.022141 
0.021837 
0.020459 
0.025268 
0.022508 
0.022880 
0.015131 
0.041837 
0.042141 
0.038621 
0.041104 
0.028271 
0.014632 
0.012369 
0.018443 
0.030116 
0.042720 
0.054116 
0.052714 
0.028277 
0.014859 
0.020344 
0.038007 
0.055464 
0.052956 
0.033196 
0.023686 
0.026732 
0.032198 
0.039146 
0.052906 
0.042953 
0.043071 
0.051551 
0.047650 
0.037175 
0.025057 
0.015452 
0.018392 
0.028356 
0.031929 
0.030231 
0.039141 
0.038021 
0.024574 
0.021938 
0.025983 
0.021670 
0.022578 
0.026390 
0.031166 
0.018941 
0.011107 
0.010377 
0.013266 
0.011512 
0.019749 
0.037487 
0.044228 
0.031182 
0.020026 
0.007678 
0.000000 
0.018299 
0.046450 
0.066178 
0.057216 
0.044245 
0.029415 
0.023119 
0.021397 
0.030356 
0.048296 
0.050889 
0.041283 
0.030199 
0.031190 
0.027398 
0.028587 
0.021661 
0.021121 
0.025155 
0.034114 
0.022323 
0.009124 
0.000000 
0.007770 
0.013830 
0.015273 
0.026279 
0.040659 
0.032842 
0.024983 
0.028182 
0.046407 
0.055913 
0.045033 
0.026331 
0.021201 
0.025952 
0.036920 
0.035489 
0.026327 
0.025268 
0.018612 
0.016116 
0.010830 
0.024808 
0.026297 
0.030429 
0.041318 
0.033576 
0.017840 
0.014175 
0.026855 
0.049861 
0.065537 
0.063567 
0.048633 
0.024441 
0.014987 
0.019906 
0.025871 
0.033401 
0.036731 
0.032861 
0.028409 
0.028067 
0.035857 
0.042714 
0.052890 
0.037611 
0.033997 
0.043478 
0.040177 
0.033025 
0.018939 
0.010969 
0.019749 
0.038133 
0.045373 
0.036103 
0.036964 
0.032005 
0.024250 
0.027098 
0.026237 
0.018246 
0.014907 
0.020386 
0.029598 
0.022723 
0.019142 
0.013755 
0.008646 
0.000000 
0.012546 
0.026496 
0.033348 
0.034703 
0.031712 
0.014759 
0.000000 
0.011310 
0.030962 
0.045486 
0.038857 
0.034827 
0.027435 
0.027351 
0.023220 
0.028723 
0.046718 
0.049615 
0.039342 
0.025369 
0.023077 
0.024736 
0.028796 
0.020128 
0.013782 
0.016059 
0.025300 
0.023525 
0.016458 
0.013763 
0.010673 
0.010286 
0.010190 
0.019559 
0.035161 
0.035416 
0.031460 
0.034041 
0.050523 
0.060186 
0.048303 
0.030193 
0.028857 
0.034558 
0.038936 
0.032751 
0.029216 
0.034469 
0.022924 
0.015839 
0.012306 
0.022956 
0.021929 
0.024974 
0.036502 
0.041285 
0.027421 
0.022859 
0.038026 
0.059279 
0.073265 
0.065447 
0.048782 
0.026020 
0.020246 
0.028127 
0.028732 
0.028230 
0.036789 
0.043921 
0.040350 
0.032786 
0.035500 
0.043409 
0.050132 
0.034673 
0.025023 
0.024250 
0.020380 
0.017011 
0.009212 
0.000000 
0.015071 
0.030603 
0.040554 
0.034646 
0.037296 
0.034392 
0.032748 
0.043117 
0.038994 
0.027479 
0.019634 
0.026844 
0.039779 
0.034605 
0.035315 
0.028043 
0.017660 
0.011917 
0.016103 
0.026952 
0.030825 
0.038638 
0.037005 
0.017917 
0.000000 
0.000000 
0.011746 
0.020318 
0.023129 
0.028158 
0.022867 
0.022611 
0.022180 
0.022917 
0.036120 
0.049037 
0.048762 
0.031235 
0.022047 
0.023899 
0.025091 
0.020616 
0.013278 
0.015505 
0.027657 
0.032809 
0.028592 
0.026677 
0.019104 
0.016866 
0.014196 
0.022285 
0.041186 
0.049552 
0.048173 
0.047872 
0.055324 
0.054010 
0.038877 
0.029981 
0.040050 
0.049696 
0.047658 
0.033453 
0.028842 
0.035380 
0.027086 
0.025816 
0.026838 
0.037054 
0.034352 
0.032781 
0.036529 
0.043554 
0.036274 
0.035576 
0.055082 
0.069335 
0.073814 
0.063023 
0.045495 
0.024515 
0.019303 
0.025660 
0.030506 
0.029644 
0.038748 
0.043136 
0.039359 
0.039547 
0.043139 
0.049192 
0.052274 
0.044007 
0.032564 
0.020252 
0.013264 
0.010281 
0.009283 
0.009603 
0.016402 
0.019448 
0.022556 
0.021108 
0.027334 
0.033061 
0.035568 
0.050080 
0.051560 
0.040421 
0.028434 
0.033717 
0.042101 
0.037092 
0.042129 
0.041853 
0.033539 
0.024008 
0.016437 
0.017266 
0.020109 
0.032732 
0.041270 
0.024968 
0.008281 
0.000000 
0.000000 
0.000000 
0.008431 
0.015865 
0.016813 
0.019441 
0.023986 
0.020324 
0.025319 
0.036882 
0.046440 
0.038330 
0.028640 
0.029659 
0.026585 
0.024981 
0.016379 
0.017805 
0.029330 
0.032164 
0.030908 
0.025477 
0.021201 
0.024512 
0.020666 
0.022703 
0.034094 
0.042482 
0.044474 
0.052403 
0.059047 
0.056048 
0.035740 
0.024336 
0.032334 
0.045989 
0.048307 
0.036454 
0.027342 
0.027723 
0.026904 
0.036800 
0.043548 
0.042255 
0.045344 
0.045845 
0.040283 
0.037894 
0.036546 
0.036945 
0.053724 
0.062434 
0.059922 
0.051326 
0.042751 
0.026885 
0.021532 
0.018501 
0.018796 
0.019335 
0.028819 
0.038605 
0.042470 
0.055410 
0.055780 
0.053417 
0.063574 
0.069148 
0.056748 
0.033088 
0.022205 
0.017962 
0.020973 
0.020861 
0.024112 
0.018498 
0.015680 
0.013541 
0.014652 
0.018292 
0.022073 
0.034500 
0.039361 
0.031308 
0.025110 
0.031405 
0.033042 
0.033822 
0.043856 
0.046363 
0.046040 
0.035944 
0.018196 
0.009454 
0.010643 
0.024743 
0.040384 
0.033102 
0.016993 
0.007935 
0.000000 
0.000000 
0.000000 
0.011694 
0.019129 
0.017514 
0.018132 
0.018473 
0.024106 
0.027222 
0.037436 
0.043670 
0.033144 
0.025862 
0.018214 
0.014930 
0.009013 
0.011515 
0.020351 
0.028104 
0.036026 
0.025213 
0.017930 
0.022149 
0.027208 
0.031880 
0.037846 
0.040856 
0.038584 
0.049299 
0.059472 
0.057611 
0.039929 
0.026477 
0.031477 
0.051567 
0.061106 
0.051146 
0.037951 
0.029458 
0.021935 
0.024036 
0.026391 
0.029784 
0.035980 
0.042619 
0.038270 
0.027183 
0.022899 
0.024611 
0.042491 
0.061227 
0.058964 
0.049196 
0.041469 
0.030694 
0.029064 
0.018484 
0.012803 
0.012496 
0.017392 
0.027003 
0.037718 
0.057095 
0.054002 
0.048205 
0.064164 
0.077630 
0.064752 
0.041989 
0.034162 
0.031654 
0.038343 
0.030302 
0.024698 
0.021358 
0.022870 
0.020286 
0.013216 
0.011244 
0.016760 
0.030067 
0.035033 
0.024803 
0.016428 
0.018367 
0.022051 
0.031747 
0.042420 
0.044560 
0.042933 
0.030599 
0.013025 
0.000000 
0.000000 
0.017522 
0.034615 
0.042461 
0.031750 
0.023834 
0.012211 
0.000000 
0.000000 
0.016934 
0.031975 
0.024795 
0.019789 
0.026409 
0.036034 
0.028196 
0.031372 
0.044576 
0.041434 
0.031132 
0.018068 
0.009133 
0.000000 
0.010147 
0.016752 
0.024028 
0.034228 
0.025212 
0.018340 
0.022967 
0.036553 
0.044445 
0.043914 
0.036962 
0.032454 
0.043444 
0.050925 
0.050542 
0.045351 
0.034641 
0.032455 
0.046742 
0.054435 
0.047026 
0.043340 
0.037150 
0.024612 
0.017156 
0.012979 
0.026806 
0.033174 
0.037496 
0.028123 
0.016687 
0.013438 
0.015805 
0.032302 
0.054354 
0.052309 
0.050129 
0.045480 
0.033955 
0.031941 
0.020900 
0.017125 
0.018312 
0.018647 
0.025201 
0.032924 
0.050062 
0.050497 
0.048171 
0.067140 
0.074783 
0.055655 
0.038193 
0.030431 
0.032537 
0.045765 
0.041322 
0.033217 
0.033817 
0.038418 
0.034438 
0.020713 
0.013711 
0.019379 
0.030247 
0.029827 
0.022489 
0.012395 
0.010149 
0.019005 
0.037320 
0.049776 
0.052774 
0.049416 
0.033762 
0.014229 
0.000000 
0.007462 
0.019815 
0.031440 
0.045686 
0.047259 
0.046594 
0.030120 
0.010849 
0.000000 
0.017595 
0.036017 
0.033054 
0.028357 
0.038419 
0.043918 
0.028055 
0.025435 
0.041551 
0.053461 
0.046675 
0.029922 
0.015773 
0.014298 
0.024995 
0.027438 
0.023292 
0.026558 
0.026832 
0.023433 
0.020181 
0.025346 
0.031054 
0.032316 
0.030831 
0.025349 
0.033081 
0.045141 
0.049651 
0.049009 
0.042681 
0.036842 
0.041224 
0.037441 
0.027994 
0.027438 
0.029579 
0.029840 
0.023513 
0.014065 
0.028696 
0.032055 
0.027586 
0.017718 
0.013733 
0.015093 
0.014097 
0.023470 
0.039766 
0.036882 
0.037516 
0.038798 
0.035372 
0.040456 
0.031689 
0.032219 
0.032876 
0.028787 
0.030991 
0.026140 
0.029861 
0.032184 
0.036804 
0.056880 
0.063343 
0.049102 
0.040517 
0.031197 
0.033384 
0.050230 
0.058615 
0.051638 
0.043520 
0.035935 
0.031362 
0.024474 
0.018245 
0.021307 
0.023227 
0.022470 
0.022614 
0.011372 
0.000000 
0.009087 
0.023495 
0.032934 
0.038038 
0.043021 
0.036425 
0.019864 
0.009666 
0.014200 
0.025936 
0.028823 
0.037340 
0.048615 
0.053777 
0.039276 
0.015868 
0.000000 
0.010845 
0.028592 
0.039153 
0.041789 
0.055132 
0.050627 
0.028821 
0.024727 
0.041132 
0.053446 
0.048029 
0.037302 
0.024880 
0.030406 
0.052126 
0.052007 
0.033770 
0.027951 
0.034571 
0.034110 
0.024669 
0.021657 
0.027371 
0.031819 
0.037773 
0.026056 
0.025337 
0.038921 
0.053428 
0.051141 
0.041166 
0.037344 
0.035389 
0.029158 
0.019560 
0.020485 
0.030428 
0.044351 
0.038455 
0.022263 
0.023514 
0.023591 
0.020699 
0.016034 
0.020896 
0.023110 
0.014566 
0.013033 
0.023526 
0.029843 
0.035169 
0.037601 
0.033911 
0.039907 
0.036947 
0.042190 
0.035911 
0.031499 
0.030484 
0.020535 
0.019477 
0.023116 
0.025062 
0.036943 
0.046315 
0.044266 
0.042923 
0.038967 
0.042809 
0.058429 
0.072822 
0.067363 
0.043639 
0.029810 
0.031794 
0.032496 
0.025941 
0.026548 
0.018835 
0.011931 
0.011466 
0.005657 
0.000000 
0.000000 
0.019101 
0.026235 
0.028521 
0.035098 
0.030929 
0.021922 
0.012913 
0.015420 
0.025696 
0.025795 
0.023788 
0.029346 
0.034618 
0.024975 
0.008895 
0.000000 
0.000000 
0.021286 
0.042350 
0.053429 
0.071543 
0.067125 
0.038166 
0.032109 
0.047744 
0.052744 
0.048585 
0.039423 
0.031629 
0.039860 
0.066208 
0.062226 
0.040490 
0.025301 
0.025259 
0.029502 
0.031404 
0.029116 
0.037120 
0.038096 
0.043742 
0.028822 
0.026135 
0.035525 
0.045754 
0.039892 
0.036810 
0.046009 
0.043665 
0.035872 
0.025012 
0.027357 
0.035766 
0.045474 
0.036657 
0.019712 
0.041129 
0.036550 
0.038092 
0.030990 
0.040588 
0.025643 
0.009775 
0.000000 
0.023188 
0.047067 
0.041992 
0.029689 
0.019020 
0.021314 
0.026071 
0.037091 
0.036867 
0.047493 
0.043225 
0.026312 
0.026034 
0.030479 
0.029731 
0.035803 
0.045570 
0.050491 
0.051302 
0.049185 
0.048418 
0.054968 
0.078434 
0.079108 
0.043147 
0.027573 
0.032803 
0.031467 
0.022520 
0.023679 
0.016565 
0.000000 
0.000000 
0.000000 
0.000000 
0.020728 
0.040244 
0.035034 
0.023474 
0.022702 
0.023063 
0.024412 
0.018933 
0.027163 
0.042812 
0.035585 
0.021864 
0.023820 
0.036661 
0.023579 
0.000000 
0.000000 
0.000000 
0.028268 
0.066606 
0.079199 
0.088652 
0.087847 
0.048328 
0.039459 
0.056217 
0.073696 
0.081030 
0.072303 
0.062112 
0.053977 
0.074418 
0.059465 
0.046255 
0.030127 
0.023621 
0.037308 
0.055280 
0.045058 
0.052375 
0.050038 
0.057390 
0.040826 
0.048389 
0.051605 
0.042457 
0.031588 
0.030191 
0.044050 
0.043263 
0.033095 
0.030030 
0.045316 
0.054909 
0.050772 
0.043978 
0.022535 
0.101616 
0.088568 
0.092828 
0.071710 
0.101422 
0.043426 
0.011154 
0.011858 
0.048459 
0.103369 
0.057366 
0.025285 
0.000000 
0.000000 
0.010195 
0.022969 
0.040629 
0.086149 
0.072664 
0.041520 
0.050988 
0.049486 
0.056621 
0.058613 
0.042796 
0.039047 
0.033889 
0.032822 
0.037636 
0.053352 
0.110583 
0.114092 
0.049214 
0.028288 
0.036756 
0.044101 
0.032461 
0.046508 
0.044271 
0.024718 
0.023373 
0.036356 
0.036098 
0.063720 
0.089462 
0.046561 
0.019064 
0.017537 
0.019292 
0.020647 
0.025619 
0.059798 
0.086390 
0.050690 
0.023780 
0.035083 
0.078645 
0.056726 
0.018454 
0.000000 
0.009424 
0.041586 
0.112153 
0.129758 
0.126683 
0.138398 
0.068338 
0.057527 
0.072648 
0.121200 
0.145665 
0.146991 
0.138041 
0.086457 
0.104861 
0.066095 
0.066663 
0.058629 
0.040911 
0.070271 
0.105588 
0.078716 
0.102949 
0.106338 
0.124558 
0.081903 
0.111850 
0.112999 
0.079256 
0.052726 
0.026795 
0.027217 
0.027344 
0.026806 
0.040226 
0.084027 
0.112697 
0.095346 
0.088415 
0.040401 
0.092884 
0.103160 
0.072478 
0.066555 
0.104747 
0.042938 
0.012562 
0.023670 
0.074835 
0.116474 
0.061507 
0.044526 
0.014719 
0.000000 
0.000000 
0.000000 
0.018581 
0.059725 
0.094481 
0.077018 
0.121466 
0.111882 
0.130756 
0.134685 
0.067767 
0.050900 
0.025436 
0.022313 
0.036977 
0.031985 
0.053362 
0.055027 
0.034321 
0.050213 
0.070992 
0.090213 
0.071084 
0.104561 
0.108889 
0.079343 
0.078641 
0.105179 
0.096961 
0.107854 
0.086774 
0.035523 
0.022250 
0.043036 
0.047231 
0.026676 
0.037362 
0.085453 
0.070414 
0.052373 
0.027164 
0.024674 
0.058909 
0.084568 
0.043363 
0.035230 
0.020964 
0.021893 
0.051882 
0.079799 
0.125193 
0.134148 
0.077652 
0.091053 
0.076703 
0.069802 
0.070797 
0.088853 
0.114358 
0.068584 
0.078806 
0.071209 
0.119318 
0.136717 
0.086187 
0.104401 
0.102289 
0.079205 
0.092629 
0.146792 
0.140339 
0.075658 
0.084655 
0.088891 
0.117818 
0.104976 
0.039793 
0.016579 
0.022755 
0.051298 
0.085299 
0.140276 
0.134695 
0.117422 
0.067484 
0.031272 
0.064240 
0.076976 
0.053157 
0.069578 
0.081295 
0.032055 
0.015576 
0.045898 
0.120176 
0.112449 
0.074615 
0.099005 
0.041391 
0.018924 
0.026953 
0.010531 
0.000000 
0.030004 
0.069089 
0.076543 
0.141969 
0.156945 
0.132165 
0.153373 
0.099806 
0.107599 
0.048020 
0.038169 
0.070392 
0.044733 
0.054605 
0.056273 
0.051417 
0.098908 
0.107596 
0.077888 
0.067122 
0.066326 
0.084103 
0.119961 
0.128345 
0.129456 
0.139356 
0.101762 
0.092564 
0.041511 
0.043580 
0.103892 
0.119098 
0.049905 
0.033646 
0.064624 
0.061231 
0.092064 
0.065494 
0.030579 
0.039471 
0.065562 
0.052935 
0.080795 
0.056452 
0.024316 
0.024532 
0.035345 
0.055650 
0.053848 
0.036285 
0.061156 
0.091485 
0.069164 
0.044526 
0.054831 
0.055483 
0.052696 
0.097456 
0.085852 
0.105135 
0.150571 
0.099169 
0.087996 
0.120969 
0.111758 
0.085780 
0.124983 
0.091405 
0.066666 
0.096232 
0.074708 
0.092030 
0.085967 
0.033367 
0.016913 
0.042356 
0.104738 
0.139992 
0.170162 
0.166040 
0.110555 
0.054523 
0.050341 
0.113565 
0.129836 
0.095901 
0.148858 
0.140853 
0.053425 
0.024136 
0.056262 
0.137032 
0.145404 
0.088231 
0.103144 
0.045839 
0.035224 
0.065072 
0.027353 
0.011399 
0.035045 
0.087567 
0.080127 
0.096205 
0.139916 
0.127588 
0.144881 
0.116975 
0.116280 
0.048209 
0.028049 
0.039261 
0.047283 
0.098754 
0.103480 
0.053830 
0.054853 
0.056466 
0.066414 
0.107780 
0.070741 
0.072637 
0.089035 
0.091598 
0.129648 
0.137463 
0.071731 
0.045040 
0.021642 
0.029388 
0.069278 
0.105418 
0.048615 
0.039537 
0.078143 
0.061375 
0.099173 
0.118464 
0.062511 
0.067949 
0.086868 
0.049791 
0.063396 
0.085294 
0.046742 
0.050258 
0.058216 
0.060069 
0.035977 
0.021134 
0.027674 
0.058995 
0.086064 
0.064689 
0.078149 
0.042387 
0.041670 
0.095335 
0.117112 
0.118523 
0.148633 
0.118473 
0.069286 
0.077853 
0.060541 
0.052425 
0.084734 
0.080124 
0.082751 
0.101674 
0.103225 
0.135394 
0.140104 
0.060503 
0.029073 
0.046238 
0.059994 
0.066443 
0.093506 
0.143021 
0.128712 
0.083864 
0.112489 
0.155690 
0.149323 
0.109664 
0.173976 
0.149163 
0.062515 
0.037288 
0.062050 
0.092354 
0.115257 
0.059805 
0.049073 
0.020718 
0.014044 
0.026167 
0.010438 
0.000000 
0.026005 
0.065449 
0.088847 
0.071017 
0.111718 
0.141383 
0.119485 
0.131001 
0.084039 
0.038194 
0.039132 
0.031354 
0.031791 
0.057451 
0.078070 
0.049971 
0.050946 
0.048648 
0.077985 
0.122846 
0.102816 
0.117123 
0.108929 
0.062486 
0.071442 
0.088132 
0.061883 
0.034817 
0.027311 
0.039741 
0.041200 
0.050170 
0.026740 
0.019188 
0.037380 
0.050137 
0.112659 
0.130903 
0.083007 
0.093918 
0.060163 
0.025631 
0.033011 
0.064141 
0.058613 
0.106937 
0.136143 
0.145256 
0.087983 
0.050581 
0.022925 
0.025181 
0.045170 
0.050805 
0.042844 
0.025718 
0.051767 
0.126700 
0.118330 
0.133328 
0.092323 
0.065834 
0.056036 
0.084288 
0.057340 
0.076300 
0.127124 
0.149064 
0.178756 
0.194456 
0.175698 
0.138639 
0.159644 
0.096812 
0.062325 
0.086176 
0.064616 
0.033142 
0.035525 
0.070051 
0.089099 
0.081521 
0.096287 
0.107199 
0.100423 
0.088627 
0.153235 
0.104415 
0.074227 
0.084952 
0.122598 
0.089495 
0.062012 
0.040139 
0.043949 
0.022054 
0.000000 
0.000000 
0.000000 
0.015722 
0.045994 
0.062561 
0.053925 
0.054478 
0.114497 
0.133462 
0.093892 
0.118801 
0.081012 
0.055909 
0.092249 
0.080127 
0.065916 
0.068797 
0.124345 
0.106562 
0.109474 
0.096454 
0.105178 
0.094120 
0.101388 
0.078570 
0.058884 
0.041184 
0.073417 
0.115325 
0.112183 
0.079707 
0.076671 
0.096152 
0.078047 
0.069792 
0.048967 
0.020887 
0.017990 
0.020790 
0.048257 
0.067163 
0.069480 
0.071779 
0.032436 
0.014464 
0.033287 
0.077475 
0.054406 
0.065546 
0.098850 
0.167675 
0.150044 
0.108746 
0.047406 
0.029214 
0.045263 
0.073291 
0.036859 
0.024049 
0.062836 
0.144634 
0.124885 
0.128320 
0.069434 
0.061014 
0.059194 
0.058931 
0.056797 
0.097487 
0.104349 
0.107312 
0.171953 
0.220270 
0.204743 
0.148671 
0.172590 
0.156817 
0.099291 
0.078262 
0.081942 
0.036768 
0.033262 
0.079208 
0.123101 
0.135401 
0.140944 
0.132820 
0.118866 
0.091589 
0.145229 
0.102844 
0.123481 
0.140582 
0.153009 
0.117122 
0.064430 
0.075954 
0.100583 
0.066977 
0.022911 
0.015702 
0.033712 
0.047315 
0.106198 
0.122815 
0.053757 
0.026533 
0.044761 
0.052417 
0.043696 
0.067816 
0.087708 
0.064457 
0.109826 
0.160005 
0.147344 
0.098740 
0.150819 
0.156857 
0.121201 
0.126906 
0.075169 
0.041755 
0.050465 
0.060433 
0.058357 
0.053569 
0.086334 
0.074734 
0.079480 
0.112732 
0.121577 
0.107436 
0.136352 
0.155099 
0.118155 
0.050537 
0.036647 
0.019263 
0.030222 
0.072384 
0.114109 
0.103037 
0.037788 
0.012480 
0.022274 
0.048236 
0.061130 
0.061677 
0.069216 
0.128755 
0.111011 
0.076462 
0.068712 
0.067453 
0.063627 
0.046797 
0.023746 
0.033735 
0.084136 
0.144493 
0.134933 
0.104649 
0.070625 
0.109251 
0.114129 
0.087221 
0.068219 
0.073789 
0.093356 
0.066360 
0.105118 
0.189871 
0.195298 
0.164003 
0.155627 
0.168702 
0.147286 
0.067465 
0.041732 
0.025419 
0.053341 
0.118403 
0.092249 
0.071377 
0.062519 
0.053167 
0.051316 
0.058750 
0.118352 
0.095956 
0.090482 
0.070114 
0.062653 
0.054659 
0.060558 
0.126100 
0.133406 
0.129746 
0.053148 
0.037687 
0.071702 
0.053104 
0.075919 
0.109979 
0.044390 
0.011857 
0.014610 
0.028009 
0.039963 
0.035363 
0.049391 
0.062311 
0.133571 
0.187100 
0.153895 
0.084800 
0.115264 
0.146436 
0.118001 
0.117290 
0.050292 
0.021077 
0.041668 
0.098156 
0.107514 
0.072735 
0.049745 
0.029985 
0.034540 
0.059222 
0.086242 
0.089656 
0.116352 
0.141468 
0.103589 
0.058955 
0.072052 
0.035772 
0.039852 
0.091459 
0.092917 
0.057385 
0.020301 
0.016614 
0.041595 
0.067841 
0.127499 
0.110326 
0.058688 
0.075749 
0.105112 
0.091900 
0.154668 
0.175614 
0.149133 
0.063694 
0.040777 
0.075908 
0.126558 
0.094926 
0.081522 
0.095179 
0.066210 
0.084433 
0.095548 
0.136414 
0.112448 
0.057507 
0.049480 
0.035845 
0.060637 
0.133928 
0.135774 
0.136647 
0.158048 
0.131520 
0.142824 
0.057657 
0.021785 
0.026756 
0.080399 
0.146600 
0.100974 
0.065824 
0.039735 
0.010303 
0.011882 
0.023547 
0.071127 
0.118053 
0.113072 
0.049362 
0.024205 
0.027120 
0.053068 
0.134376 
0.161680 
0.163269 
0.062850 
0.026591 
0.041361 
0.046328 
0.044693 
0.064976 
0.025374 
0.000000 
0.018661 
0.058409 
0.086913 
0.051026 
0.055894 
0.063087 
0.086285 
0.127464 
0.085236 
0.060406 
0.109519 
0.126132 
0.112947 
0.067777 
0.022067 
0.000000 
0.015162 
0.047103 
0.072312 
0.085286 
0.043191 
0.029578 
0.042396 
0.055355 
0.110615 
0.129519 
0.126786 
0.104951 
0.096853 
0.047044 
0.038210 
0.022161 
0.023091 
0.058330 
0.086525 
0.044645 
0.018012 
0.032555 
0.085267 
0.098051 
0.128325 
0.078385 
0.031986 
0.038616 
0.076987 
0.087254 
0.176766 
0.199766 
0.179978 
0.085075 
0.085048 
0.130198 
0.152078 
0.069141 
0.036769 
0.053299 
0.076835 
0.098773 
0.080225 
0.114919 
0.076789 
0.042078 
0.055536 
0.048662 
0.038396 
0.077635 
0.132257 
0.157082 
0.167493 
0.104622 
0.111895 
0.044124 
0.016720 
0.038376 
0.112721 
0.161273 
0.150586 
0.126006 
0.084886 
0.000000 
0.000000 
0.000000 
0.036732 
0.087887 
0.087024 
0.035682 
0.023182 
0.039661 
0.035574 
0.068146 
0.104917 
0.148534 
0.060233 
0.022429 
0.037024 
0.074546 
0.058934 
0.077739 
0.031191 
0.011609 
0.033215 
0.090835 
0.096164 
0.070753 
0.103274 
0.100460 
0.057376 
0.055067 
0.035100 
0.030664 
0.073983 
0.122157 
0.074439 
0.031144 
0.013069 
0.000000 
0.000000 
0.023473 
0.051636 
0.054740 
0.041837 
0.061824 
0.081472 
0.048934 
0.056109 
0.057628 
0.059449 
0.061561 
0.049139 
0.028734 
0.029289 
0.034744 
0.018407 
0.023576 
0.042512 
0.040310 
0.017292 
0.020484 
0.059791 
0.103339 
0.102912 
0.065634 
0.029731 
0.047072 
0.108646 
0.091158 
0.148575 
0.157420 
0.168768 
0.103660 
0.129910 
0.110418 
0.120531 
0.053623 
0.024729 
0.049743 
0.108420 
0.076124 
0.040377 
0.052689 
0.056643 
0.061367 
0.122773 
0.105391 
0.044373 
0.041142 
0.079387 
0.092602 
0.117322 
0.058617 
0.042162 
0.014709 
0.000000 
0.014653 
0.049064 
0.079486 
0.102591 
0.114888 
0.125337 
0.031166 
0.018892 
0.015656 
0.052505 
0.138589 
0.139591 
0.060759 
0.055155 
0.099192 
0.058725 
0.068573 
0.103074 
0.148681 
0.062908 
0.025237 
0.023729 
0.035628 
0.029655 
0.032733 
0.011568 
0.000000 
0.020623 
0.071203 
0.123337 
0.087218 
0.068770 
0.054754 
0.035088 
0.050066 
0.045873 
0.028920 
0.054764 
0.102209 
0.052717 
0.032187 
0.037394 
0.015197 
0.011556 
0.040644 
0.093516 
0.087253 
0.081842 
0.098719 
0.066866 
0.042543 
0.049449 
0.032787 
0.043475 
0.081126 
0.051720 
0.054712 
0.071163 
0.086333 
0.036904 
0.022255 
0.036778 
0.067513 
0.028010 
0.010843 
0.024509 
0.064951 
0.110328 
0.099348 
0.043167 
0.046876 
0.100500 
0.072305 
0.108686 
0.142685 
0.150425 
0.101695 
0.135369 
0.073829 
0.059236 
0.045718 
0.024737 
0.046037 
0.106023 
0.072671 
0.031326 
0.039715 
0.077398 
0.069299 
0.111813 
0.073163 
0.029397 
0.036089 
0.078170 
0.051373 
0.044454 
0.016918 
0.000000 
0.000000 
0.000000 
0.000000 
0.027213 
0.073940 
0.119970 
0.123555 
0.084952 
0.088067 
0.060939 
0.036564 
0.059326 
0.134663 
0.135540 
0.067329 
0.076401 
0.113560 
0.082616 
0.115875 
0.147523 
0.164298 
0.081845 
0.060887 
0.048532 
0.032740 
0.035673 
0.018228 
0.000000 
0.000000 
0.015578 
0.057484 
0.128626 
0.123657 
0.089915 
0.063789 
0.052489 
0.099063 
0.101976 
0.051255 
0.052786 
0.058228 
0.045485 
0.071780 
0.103673 
0.043776 
0.026021 
0.060066 
0.110274 
0.148754 
0.132028 
0.099488 
0.064820 
0.082802 
0.109205 
0.049549 
0.036807 
0.068952 
0.060233 
0.104912 
0.123059 
0.097450 
0.043993 
0.036382 
0.024564 
0.030417 
0.010928 
0.000000 
0.000000 
0.019535 
0.043911 
0.045412 
0.019797 
0.020507 
0.046411 
0.049551 
0.092471 
0.085842 
0.089298 
0.073175 
0.111288 
0.054357 
0.046870 
0.076619 
0.037358 
0.033471 
0.064003 
0.079939 
0.033464 
0.019798 
0.032292 
0.030603 
0.055016 
0.049848 
0.020404 
0.018357 
0.038482 
0.027078 
0.018671 
0.000000 
0.000000 
0.000000 
0.000000 
0.000000 
0.033033 
0.088403 
0.081891 
0.077051 
0.040612 
0.087467 
0.098772 
0.078329 
0.064440 
0.065245 
0.062109 
0.050238 
0.085528 
0.076956 
0.067825 
0.066853 
0.088418 
0.134917 
0.118202 
0.145491 
0.115562 
0.066898 
0.078679 
0.033826 
0.017714 
0.029787 
0.027310 
0.050314 
0.071941 
0.092528 
0.140304 
0.112595 
0.054614 
0.061006 
0.079162 
0.058770 
0.088996 
0.080760 
0.082455 
0.117554 
0.121723 
0.051340 
0.043838 
0.103508 
0.138400 
0.144430 
0.106041 
0.114559 
0.113019 
0.150418 
0.137155 
0.062691 
0.054251 
0.102353 
0.058434 
0.067351 
0.107139 
0.127519 
0.072763 
0.074992 
0.033247 
0.017368 
0.000000 
0.000000 
0.000000 
0.000000 
0.019589 
0.035562 
0.017451 
0.018414 
0.037772 
0.028175 
0.042877 
0.055230 
0.086862 
0.062481 
0.070458 
0.033007 
0.032554 
0.064702 
0.040438 
0.044636 
0.033845 
0.033843 
0.015277 
0.011296 
0.012233 
0.023256 
0.062378 
0.080797 
0.034251 
0.023544 
0.049691 
0.058170 
0.046587 
0.026029 
0.031822 
0.017045 
0.000000 
0.000000 
0.025055 
0.065359 
0.064054 
0.082151 
0.040681 
0.048512 
0.079785 
0.135593 
0.111612 
0.057202 
0.046794 
0.030152 
0.042879 
0.057964 
0.101611 
0.061341 
0.050753 
0.087363 
0.137933 
0.160924 
0.089090 
0.047700 
0.060322 
0.030863 
0.034195 
0.072482 
0.062183 
0.087292 
0.075024 
0.077530 
0.134338 
0.081406 
0.040816 
0.056636 
0.108948 
0.064537 
0.077979 
0.114002 
0.109646 
0.074781 
0.051457 
0.019474 
0.017014 
0.040535 
0.051960 
0.051592 
0.043558 
0.080364 
0.143639 
0.146747 
0.093158 
0.061294 
0.059838 
0.097521 
0.049270 
0.051974 
0.110901 
0.123045 
0.056476 
0.038956 
0.024521 
0.030689 
0.011507 
0.000000 
0.000000 
0.011175 
0.030440 
0.066675 
0.036197 
0.041293 
0.073773 
0.035485 
0.027389 
0.045986 
0.057688 
0.070321 
0.085585 
0.043085 
0.051781 
0.112008 
0.083734 
0.107904 
0.051248 
0.020957 
0.018097 
0.034393 
0.022073 
0.036058 
0.084037 
0.063512 
0.028520 
0.040496 
0.107894 
0.143998 
0.113643 
0.068046 
0.087813 
0.059360 
0.026794 
0.020315 
0.041210 
0.085915 
0.069316 
0.049728 
0.028034 
0.031378 
0.064126 
0.137563 
0.085242 
0.051702 
0.072873 
0.040221 
0.029941 
0.048708 
0.108104 
0.087435 
0.070607 
0.081049 
0.111851 
0.128739 
0.068841 
0.054592 
0.084347 
0.044085 
0.029777 
0.045178 
0.055678 
0.068718 
0.087948 
0.072133 
0.107472 
0.061420 
0.052523 
0.069692 
0.125775 
0.069165 
0.068614 
0.080526 
0.057566 
0.031552 
0.015208 
0.000000 
0.000000 
0.000000 
0.000000 
0.000000 
0.013842 
0.050272 
0.113682 
0.085639 
0.065298 
0.086696 
0.068744 
0.051438 
0.021431 
0.019007 
0.044358 
0.050667 
0.022375 
0.017361 
0.033258 
0.070449 
0.032566 
0.014640 
0.014532 
0.030061 
0.025494 
0.038291 
0.030159 
0.051832 
0.065500 
0.031758 
0.035144 
0.073067 
0.061973 
0.083849 
0.060934 
0.036897 
0.060249 
0.135591 
0.103271 
0.138395 
0.078930 
0.032848 
0.043822 
0.093181 
0.049110 
0.036742 
0.069857 
0.058281 
0.028454 
0.026742 
0.070286 
0.118641 
0.077407 
0.055373 
0.089306 
0.100211 
0.072004 
0.059069 
0.059563 