# vtk DataFile Version 3.0
results.vtk
ASCII
DATASET RECTILINEAR_GRID
DIMENSIONS 100 100 1
X_COORDINATES 100 double
0.000000 0.010000 0.020000 0.030000 0.040000 0.050000 0.060000 0.070000 0.080000 0.090000 0.100000 0.110000 0.120000 0.130000 0.140000 0.150000 0.160000 0.170000 0.180000 0.190000 0.200000 0.210000 0.220000 0.230000 0.240000 0.250000 0.260000 0.270000 0.280000 0.290000 0.300000 0.310000 0.320000 0.330000 0.340000 0.350000 0.360000 0.370000 0.380000 0.390000 0.400000 0.410000 0.420000 0.430000 0.440000 0.450000 0.460000 0.470000 0.480000 0.490000 0.500000 0.510000 0.520000 0.530000 0.540000 0.550000 0.560000 0.570000 0.580000 0.590000 0.600000 0.610000 0.620000 0.630000 0.640000 0.650000 0.660000 0.670000 0.680000 0.690000 0.700000 0.710000 0.720000 0.730000 0.740000 0.750000 0.760000 0.770000 0.780000 0.790000 0.800000 0.810000 0.820000 0.830000 0.840000 0.850000 0.860000 0.870000 0.880000 0.890000 0.900000 0.910000 0.920000 0.930000 0.940000 0.950000 0.960000 0.970000 0.980000 0.990000 
Y_COORDINATES 100 double
0.000000 0.010000 0.020000 0.030000 0.040000 0.050000 0.060000 0.070000 0.080000 0.090000 0.100000 0.110000 0.120000 0.130000 0.140000 0.150000 0.160000 0.170000 0.180000 0.190000 0.200000 0.210000 0.220000 0.230000 0.240000 0.250000 0.260000 0.270000 0.280000 0.290000 0.300000 0.310000 0.320000 0.330000 0.340000 0.350000 0.360000 0.370000 0.380000 0.390000 0.400000 0.410000 0.420000 0.430000 0.440000 0.450000 0.460000 0.470000 0.480000 0.490000 0.500000 0.510000 0.520000 0.530000 0.540000 0.550000 0.560000 0.570000 0.580000 0.590000 0.600000 0.610000 0.620000 0.630000 0.640000 0.650000 0.660000 0.670000 0.680000 0.690000 0.700000 0.710000 0.720000 0.730000 0.740000 0.750000 0.760000 0.770000 0.780000 0.790000 0.800000 0.810000 0.820000 0.830000 0.840000 0.850000 0.860000 0.870000 0.880000 0.890000 0.900000 0.910000 0.920000 0.930000 0.940000 0.950000 0.960000 0.970000 0.980000 0.990000 
Z_COORDINATES 1 double
0
POINT_DATA 10000 
FIELD FieldData 1 
Concentração 1 10000 double 
0.092643 
0.108074 
0.085860 
0.066748 
0.084423 
0.060387 
0.067903 
0.073149 
0.061214 
0.036272 
0.044566 
0.071833 
0.066497 
0.049502 
0.070829 
0.089864 
0.086022 
0.065231 
0.069848 
0.071591 
0.073581 
0.101969 
0.085137 
0.063629 
0.071025 
0.067749 
0.036047 
0.029322 
0.044003 
0.033898 
0.033320 
0.060368 
0.071694 
0.059685 
0.030568 
0.031254 
0.057003 
0.055470 
0.028946 
0.027650 
0.047923 
0.050599 
0.063725 
0.057005 
0.022768 
0.000000 
0.010102 
0.034134 
0.069251 
0.097019 
0.113807 
0.075312 
0.053158 
0.020623 
0.000000 
0.000000 
0.000000 
0.035524 
0.090304 
0.115025 
0.085135 
0.089785 
0.060805 
0.063739 
0.057394 
0.032155 
0.032211 
0.052483 
0.041876 
0.044807 
0.024853 
0.015997 
0.009531 
0.012952 
0.015366 
0.030432 
0.041082 
0.018133 
0.000000 
0.000000 
0.014116 
0.025151 
0.049148 
0.057070 
0.082387 
0.096079 
0.059986 
0.051441 
0.034346 
0.043811 
0.076976 
0.090166 
0.041749 
0.014719 
0.013917 
0.036954 
0.072493 
0.040287 
0.018618 
0.000000 
0.093286 
0.104299 
0.087055 
0.065618 
0.074801 
0.057201 
0.071189 
0.071975 
0.049384 
0.035998 
0.058296 
0.083875 
0.055937 
0.033124 
0.046417 
0.070283 
0.076737 
0.061806 
0.049370 
0.049127 
0.063367 
0.084488 
0.069017 
0.067429 
0.075761 
0.065180 
0.038954 
0.037359 
0.055984 
0.046856 
0.041935 
0.070057 
0.082738 
0.069316 
0.036556 
0.037050 
0.057990 
0.042374 
0.020804 
0.021206 
0.036798 
0.054533 
0.074669 
0.068261 
0.027586 
0.000000 
0.011846 
0.031774 
0.046957 
0.071066 
0.102559 
0.073894 
0.040998 
0.014334 
0.000000 
0.000000 
0.011551 
0.047782 
0.107560 
0.120174 
0.082726 
0.079671 
0.058628 
0.070285 
0.067136 
0.042632 
0.045314 
0.069730 
0.053623 
0.056170 
0.034340 
0.028358 
0.020332 
0.024819 
0.023865 
0.035005 
0.029836 
0.011308 
0.000000 
0.009109 
0.024569 
0.033851 
0.061624 
0.072538 
0.087372 
0.085794 
0.048175 
0.038242 
0.032691 
0.042682 
0.058019 
0.070588 
0.035420 
0.017355 
0.016940 
0.033236 
0.062233 
0.038927 
0.026897 
0.012260 
0.083211 
0.078257 
0.060032 
0.051434 
0.042556 
0.027973 
0.033426 
0.035683 
0.032253 
0.044282 
0.082326 
0.096706 
0.048931 
0.023441 
0.037993 
0.080218 
0.106764 
0.092691 
0.050067 
0.039653 
0.057204 
0.058480 
0.057376 
0.081751 
0.073463 
0.072422 
0.059849 
0.051922 
0.054844 
0.053546 
0.034627 
0.039267 
0.046552 
0.042304 
0.030341 
0.041576 
0.049456 
0.028889 
0.019440 
0.027922 
0.035557 
0.054845 
0.056164 
0.051807 
0.022923 
0.009602 
0.019612 
0.040336 
0.034495 
0.049469 
0.091268 
0.087493 
0.043096 
0.015938 
0.000000 
0.000000 
0.019919 
0.064485 
0.118015 
0.112357 
0.072093 
0.048512 
0.033546 
0.038165 
0.044607 
0.051684 
0.061464 
0.073168 
0.050069 
0.050179 
0.040887 
0.050625 
0.040260 
0.048540 
0.046161 
0.061051 
0.033062 
0.009481 
0.000000 
0.017565 
0.039390 
0.035018 
0.053834 
0.077453 
0.062149 
0.046085 
0.032404 
0.044710 
0.056665 
0.060854 
0.041607 
0.036473 
0.026696 
0.032193 
0.031812 
0.027008 
0.037025 
0.033044 
0.040517 
0.023414 
0.064196 
0.066820 
0.057636 
0.067850 
0.040868 
0.016994 
0.013866 
0.022907 
0.041580 
0.061050 
0.082519 
0.085521 
0.039462 
0.016994 
0.026109 
0.057214 
0.092476 
0.087992 
0.046837 
0.030118 
0.037232 
0.045379 
0.055576 
0.086963 
0.061597 
0.063928 
0.086272 
0.078600 
0.057236 
0.036607 
0.019186 
0.023426 
0.040688 
0.046222 
0.042867 
0.065556 
0.064271 
0.035141 
0.031779 
0.044046 
0.031623 
0.032566 
0.038316 
0.051932 
0.027069 
0.013843 
0.013344 
0.020120 
0.014653 
0.025290 
0.057216 
0.072862 
0.045529 
0.029337 
0.010411 
0.000000 
0.027464 
0.077221 
0.110795 
0.087684 
0.068888 
0.041368 
0.032226 
0.027632 
0.043483 
0.080944 
0.082907 
0.061777 
0.042524 
0.050914 
0.040288 
0.044538 
0.029999 
0.030643 
0.037612 
0.059388 
0.033528 
0.011194 
0.000000 
0.010575 
0.021018 
0.019736 
0.038066 
0.067475 
0.046468 
0.031517 
0.038201 
0.075592 
0.093230 
0.070386 
0.034357 
0.026569 
0.036752 
0.062885 
0.060527 
0.038183 
0.036965 
0.024765 
0.023549 
0.013681 
0.032780 
0.036292 
0.043384 
0.069004 
0.051772 
0.022452 
0.016065 
0.037395 
0.080287 
0.107484 
0.100915 
0.074185 
0.031760 
0.018099 
0.027877 
0.034580 
0.046855 
0.052623 
0.046584 
0.040062 
0.039545 
0.056417 
0.063925 
0.087566 
0.052874 
0.047753 
0.072246 
0.064205 
0.055145 
0.027898 
0.013959 
0.028847 
0.065311 
0.077778 
0.053013 
0.056123 
0.046426 
0.031466 
0.038917 
0.038027 
0.023145 
0.017459 
0.026576 
0.045595 
0.031036 
0.027359 
0.017924 
0.010556 
0.000000 
0.015860 
0.038572 
0.048952 
0.052861 
0.053527 
0.022560 
0.000000 
0.015723 
0.048417 
0.075331 
0.056459 
0.052462 
0.040007 
0.045667 
0.033361 
0.041032 
0.076979 
0.077194 
0.056738 
0.032478 
0.032236 
0.036109 
0.048476 
0.029252 
0.017040 
0.020222 
0.037751 
0.034474 
0.022194 
0.021073 
0.013921 
0.012946 
0.010983 
0.025496 
0.053693 
0.051114 
0.043257 
0.045466 
0.077223 
0.098979 
0.078175 
0.042323 
0.040808 
0.050296 
0.059168 
0.047401 
0.042369 
0.059247 
0.033383 
0.020397 
0.014566 
0.031443 
0.027919 
0.032044 
0.055221 
0.069020 
0.039137 
0.028633 
0.053968 
0.090134 
0.117522 
0.101088 
0.076378 
0.035923 
0.028908 
0.047947 
0.043864 
0.038206 
0.055067 
0.072613 
0.066126 
0.046224 
0.050038 
0.064151 
0.080626 
0.047690 
0.031559 
0.033726 
0.027272 
0.024599 
0.011830 
0.000000 
0.020756 
0.048032 
0.068982 
0.052725 
0.060800 
0.052189 
0.047330 
0.071492 
0.060063 
0.039409 
0.024866 
0.038741 
0.067201 
0.052672 
0.058257 
0.043102 
0.023509 
0.015348 
0.023571 
0.045940 
0.047294 
0.063441 
0.059937 
0.025179 
0.000000 
0.000000 
0.016288 
0.030570 
0.033830 
0.047432 
0.033436 
0.033618 
0.032406 
0.030409 
0.054290 
0.080529 
0.081535 
0.044482 
0.028494 
0.034467 
0.037602 
0.030692 
0.016749 
0.020135 
0.043433 
0.054902 
0.044712 
0.046019 
0.028912 
0.025331 
0.018196 
0.031581 
0.068801 
0.083184 
0.078199 
0.072346 
0.085974 
0.082192 
0.055070 
0.041887 
0.066294 
0.083289 
0.077476 
0.047190 
0.040867 
0.060243 
0.039854 
0.037794 
0.039745 
0.060223 
0.051763 
0.046480 
0.052743 
0.071892 
0.054932 
0.051053 
0.089690 
0.111260 
0.118919 
0.099197 
0.069215 
0.032007 
0.025302 
0.040242 
0.051656 
0.045063 
0.063149 
0.067648 
0.056707 
0.056024 
0.062964 
0.075924 
0.078985 
0.062622 
0.045125 
0.025210 
0.015339 
0.011699 
0.010912 
0.012391 
0.024144 
0.026425 
0.032309 
0.028160 
0.042048 
0.054822 
0.054320 
0.084860 
0.087433 
0.067416 
0.041315 
0.052032 
0.070292 
0.054140 
0.065765 
0.067802 
0.051356 
0.035487 
0.022117 
0.025140 
0.027227 
0.050474 
0.070154 
0.037021 
0.010217 
0.000000 
0.000000 
0.000000 
0.011281 
0.023538 
0.022575 
0.028520 
0.041398 
0.028509 
0.033871 
0.055186 
0.076647 
0.058225 
0.040848 
0.049161 
0.042062 
0.043940 
0.024809 
0.026473 
0.049853 
0.049919 
0.046251 
0.037525 
0.031308 
0.042370 
0.029739 
0.029523 
0.048985 
0.063810 
0.065664 
0.081529 
0.091703 
0.089352 
0.049697 
0.030091 
0.045535 
0.069130 
0.072526 
0.050978 
0.035618 
0.039622 
0.038863 
0.063003 
0.076393 
0.066307 
0.074702 
0.075290 
0.060838 
0.057714 
0.058962 
0.054892 
0.085951 
0.094520 
0.087646 
0.074431 
0.066746 
0.037634 
0.030690 
0.025102 
0.026967 
0.025900 
0.043790 
0.062154 
0.063249 
0.090850 
0.088870 
0.079481 
0.099850 
0.113237 
0.093012 
0.047420 
0.031267 
0.023697 
0.030917 
0.030966 
0.041579 
0.026422 
0.019988 
0.016200 
0.018686 
0.025890 
0.028853 
0.050461 
0.059955 
0.045629 
0.035963 
0.052098 
0.050329 
0.047971 
0.069283 
0.071686 
0.076235 
0.061292 
0.026908 
0.012184 
0.013087 
0.036397 
0.068374 
0.051385 
0.022095 
0.009651 
0.000000 
0.000000 
0.000000 
0.016058 
0.028338 
0.023374 
0.025787 
0.024039 
0.033788 
0.036306 
0.056403 
0.071860 
0.047788 
0.036740 
0.024162 
0.022222 
0.011861 
0.014584 
0.029581 
0.041887 
0.061548 
0.036839 
0.023067 
0.032330 
0.040086 
0.046420 
0.056888 
0.064223 
0.054625 
0.074814 
0.095087 
0.093564 
0.058781 
0.033831 
0.043262 
0.083438 
0.102311 
0.083028 
0.057036 
0.042451 
0.028578 
0.034612 
0.039100 
0.039062 
0.051935 
0.067077 
0.062009 
0.039070 
0.032155 
0.032117 
0.063177 
0.099336 
0.092510 
0.072369 
0.061682 
0.043915 
0.048336 
0.026268 
0.015645 
0.014660 
0.022011 
0.037961 
0.054140 
0.094331 
0.081968 
0.064973 
0.095857 
0.126338 
0.104553 
0.062411 
0.055131 
0.048542 
0.064823 
0.044307 
0.034697 
0.028400 
0.033335 
0.029890 
0.016496 
0.013010 
0.021401 
0.046121 
0.057481 
0.035706 
0.021071 
0.026219 
0.029499 
0.045368 
0.063329 
0.064635 
0.064315 
0.044821 
0.016772 
0.000000 
0.000000 
0.023746 
0.053367 
0.070744 
0.046387 
0.034797 
0.016786 
0.000000 
0.000000 
0.026792 
0.056758 
0.036371 
0.025182 
0.037985 
0.060844 
0.040013 
0.044589 
0.072990 
0.062760 
0.044705 
0.023147 
0.010859 
0.000000 
0.012221 
0.021416 
0.034585 
0.058897 
0.036870 
0.023485 
0.033262 
0.062556 
0.076407 
0.072884 
0.055500 
0.045205 
0.068269 
0.077609 
0.075094 
0.070842 
0.050330 
0.043615 
0.071927 
0.088597 
0.073158 
0.072019 
0.062429 
0.035173 
0.021798 
0.015160 
0.035656 
0.049954 
0.061733 
0.043008 
0.021333 
0.016368 
0.018740 
0.046622 
0.090427 
0.080504 
0.080238 
0.073772 
0.048830 
0.048889 
0.027364 
0.021912 
0.025922 
0.024364 
0.035830 
0.047416 
0.083710 
0.081178 
0.069773 
0.107631 
0.121621 
0.081974 
0.053367 
0.042367 
0.046093 
0.074879 
0.061245 
0.044920 
0.050580 
0.065400 
0.059566 
0.030477 
0.017077 
0.028167 
0.051005 
0.046891 
0.033710 
0.015917 
0.013031 
0.027975 
0.063453 
0.084097 
0.087400 
0.081118 
0.051619 
0.018865 
0.000000 
0.010113 
0.029017 
0.046047 
0.075369 
0.074523 
0.078223 
0.047721 
0.015315 
0.000000 
0.027749 
0.063105 
0.050556 
0.037627 
0.057599 
0.072642 
0.038906 
0.032320 
0.062635 
0.088813 
0.076964 
0.045649 
0.020007 
0.018076 
0.036492 
0.039369 
0.030188 
0.038353 
0.039557 
0.033860 
0.026387 
0.036151 
0.045155 
0.046260 
0.044031 
0.032918 
0.048384 
0.070668 
0.074186 
0.075256 
0.067378 
0.053952 
0.065044 
0.055532 
0.036970 
0.038461 
0.042701 
0.043915 
0.034024 
0.017262 
0.043527 
0.053176 
0.042305 
0.023057 
0.017058 
0.022088 
0.018186 
0.033988 
0.066136 
0.052233 
0.053435 
0.058013 
0.051344 
0.067463 
0.046296 
0.049573 
0.054502 
0.043754 
0.051179 
0.036995 
0.042792 
0.045531 
0.051560 
0.092337 
0.102450 
0.071693 
0.062360 
0.042570 
0.044068 
0.076570 
0.093262 
0.078380 
0.068556 
0.054072 
0.046471 
0.035469 
0.024219 
0.031484 
0.034726 
0.034032 
0.040632 
0.018322 
0.000000 
0.012065 
0.034137 
0.047715 
0.055345 
0.067664 
0.059967 
0.029151 
0.012510 
0.021201 
0.044038 
0.041858 
0.056505 
0.080280 
0.093039 
0.067752 
0.024762 
0.000000 
0.015281 
0.044647 
0.062544 
0.060655 
0.088178 
0.077811 
0.036846 
0.030433 
0.061114 
0.085689 
0.073717 
0.059168 
0.034050 
0.043379 
0.087831 
0.087074 
0.048396 
0.039934 
0.059261 
0.058635 
0.035122 
0.027746 
0.038322 
0.045755 
0.062852 
0.036332 
0.032618 
0.057698 
0.088358 
0.082894 
0.060917 
0.053333 
0.050486 
0.041052 
0.023682 
0.025444 
0.043593 
0.076098 
0.065577 
0.032281 
0.030001 
0.031595 
0.026017 
0.018241 
0.029391 
0.040276 
0.021756 
0.017227 
0.032778 
0.039018 
0.051628 
0.060745 
0.051739 
0.067552 
0.057083 
0.070880 
0.053959 
0.042817 
0.045209 
0.026122 
0.024311 
0.031750 
0.031468 
0.051599 
0.068276 
0.063179 
0.063575 
0.055824 
0.062438 
0.091889 
0.117316 
0.107531 
0.063393 
0.039821 
0.048125 
0.053997 
0.040273 
0.045309 
0.027701 
0.016434 
0.018603 
0.008258 
0.000000 
0.000000 
0.025230 
0.036928 
0.040672 
0.057458 
0.048166 
0.032824 
0.016076 
0.018866 
0.036967 
0.036338 
0.031067 
0.040837 
0.050131 
0.035858 
0.011908 
0.000000 
0.000000 
0.028345 
0.061038 
0.074760 
0.114264 
0.106956 
0.051905 
0.043565 
0.075535 
0.076165 
0.066440 
0.051985 
0.038380 
0.054584 
0.109414 
0.101879 
0.059622 
0.032597 
0.035441 
0.042050 
0.044201 
0.039653 
0.057817 
0.055266 
0.070622 
0.038789 
0.031554 
0.048718 
0.073214 
0.058750 
0.052653 
0.075534 
0.068947 
0.058142 
0.034927 
0.037444 
0.050158 
0.073267 
0.054990 
0.024482 
0.054140 
0.044391 
0.050757 
0.036740 
0.056706 
0.035373 
0.012009 
0.000000 
0.028688 
0.068125 
0.064262 
0.043941 
0.026114 
0.031899 
0.038646 
0.062016 
0.051931 
0.069216 
0.065437 
0.034330 
0.034565 
0.046773 
0.038723 
0.047808 
0.072107 
0.082920 
0.085576 
0.081660 
0.076586 
0.078053 
0.115998 
0.122560 
0.058515 
0.036501 
0.052047 
0.046427 
0.028570 
0.031973 
0.020213 
0.000000 
0.000000 
0.000000 
0.000000 
0.025958 
0.059590 
0.055009 
0.032988 
0.032462 
0.033687 
0.041550 
0.025702 
0.034014 
0.063375 
0.055363 
0.028979 
0.029374 
0.051385 
0.029452 
0.000000 
0.000000 
0.000000 
0.038657 
0.101904 
0.113467 
0.131850 
0.135470 
0.063550 
0.051500 
0.084413 
0.106676 
0.118718 
0.098858 
0.081860 
0.070066 
0.116156 
0.087102 
0.068580 
0.038358 
0.027172 
0.049492 
0.085047 
0.059674 
0.073112 
0.062429 
0.079502 
0.049133 
0.064047 
0.069598 
0.055100 
0.038501 
0.041424 
0.074983 
0.072294 
0.049459 
0.040353 
0.066406 
0.076927 
0.067409 
0.060619 
0.025701 
0.156896 
0.122027 
0.146293 
0.095274 
0.164882 
0.056941 
0.009981 
0.010522 
0.061634 
0.167401 
0.076797 
0.028927 
0.000000 
0.000000 
0.012147 
0.031649 
0.053899 
0.140790 
0.101912 
0.045832 
0.063197 
0.058609 
0.069560 
0.073053 
0.051672 
0.049349 
0.043836 
0.042628 
0.047396 
0.067890 
0.176624 
0.184979 
0.062371 
0.030105 
0.045157 
0.057052 
0.034781 
0.059432 
0.056348 
0.025622 
0.024201 
0.046200 
0.039728 
0.085671 
0.144671 
0.064191 
0.020474 
0.018351 
0.021022 
0.026422 
0.028820 
0.082443 
0.140854 
0.069197 
0.025756 
0.045652 
0.131419 
0.079369 
0.020316 
0.000000 
0.008681 
0.054837 
0.181867 
0.198439 
0.173251 
0.213025 
0.083730 
0.070829 
0.094257 
0.187764 
0.227304 
0.225173 
0.213386 
0.112538 
0.165054 
0.082527 
0.086132 
0.072445 
0.043047 
0.093433 
0.166174 
0.102856 
0.156987 
0.142394 
0.190537 
0.105879 
0.175034 
0.176573 
0.104542 
0.065630 
0.029189 
0.036168 
0.035568 
0.029107 
0.043612 
0.112981 
0.169556 
0.129833 
0.141413 
0.051171 
0.125002 
0.157218 
0.093726 
0.080884 
0.166747 
0.054529 
0.010605 
0.024095 
0.098744 
0.180070 
0.075065 
0.056306 
0.015433 
0.000000 
0.000000 
0.000000 
0.020497 
0.081744 
0.148238 
0.099486 
0.185396 
0.148250 
0.195170 
0.207351 
0.081887 
0.062841 
0.025977 
0.023162 
0.047734 
0.033431 
0.065621 
0.067919 
0.035412 
0.062494 
0.095052 
0.142332 
0.093926 
0.166388 
0.171646 
0.103921 
0.102036 
0.159354 
0.130184 
0.163138 
0.119967 
0.038777 
0.021955 
0.054835 
0.060136 
0.028231 
0.047164 
0.137881 
0.093802 
0.065436 
0.027629 
0.025078 
0.080625 
0.137229 
0.055363 
0.046663 
0.021994 
0.021629 
0.064804 
0.103360 
0.190165 
0.208339 
0.101231 
0.142760 
0.100149 
0.084194 
0.084603 
0.113873 
0.176497 
0.082766 
0.101824 
0.085222 
0.181818 
0.210494 
0.109917 
0.157309 
0.137158 
0.095002 
0.117300 
0.222197 
0.213905 
0.090205 
0.108460 
0.113746 
0.180925 
0.166687 
0.050332 
0.016323 
0.023434 
0.063429 
0.109506 
0.207324 
0.180896 
0.172861 
0.087879 
0.032193 
0.069583 
0.097485 
0.055499 
0.082242 
0.105586 
0.033048 
0.013462 
0.056973 
0.184467 
0.149298 
0.089783 
0.160099 
0.053446 
0.020721 
0.038197 
0.011894 
0.000000 
0.033016 
0.091033 
0.092482 
0.215200 
0.232560 
0.170503 
0.227983 
0.126145 
0.169015 
0.060296 
0.049025 
0.120261 
0.056221 
0.067653 
0.069219 
0.063299 
0.159942 
0.170396 
0.101451 
0.081373 
0.079436 
0.108056 
0.182773 
0.192863 
0.175850 
0.206767 
0.135788 
0.145257 
0.051902 
0.055057 
0.167408 
0.192575 
0.062385 
0.036079 
0.086938 
0.075068 
0.143832 
0.087298 
0.030468 
0.042528 
0.087880 
0.066399 
0.132575 
0.078278 
0.024722 
0.023541 
0.035793 
0.066920 
0.065362 
0.038063 
0.082306 
0.144461 
0.090794 
0.046946 
0.066422 
0.068095 
0.063063 
0.149328 
0.108118 
0.132096 
0.225713 
0.125434 
0.111601 
0.184794 
0.172497 
0.109273 
0.188307 
0.115597 
0.077756 
0.145255 
0.087745 
0.116319 
0.111029 
0.034152 
0.014996 
0.053762 
0.166583 
0.214796 
0.256311 
0.244733 
0.144671 
0.058268 
0.060756 
0.148545 
0.193665 
0.119715 
0.223920 
0.215596 
0.064811 
0.022825 
0.068876 
0.211034 
0.221120 
0.113304 
0.165186 
0.058661 
0.046758 
0.116079 
0.038515 
0.012475 
0.045078 
0.139523 
0.103259 
0.121399 
0.204360 
0.163749 
0.210097 
0.152913 
0.179297 
0.059195 
0.029524 
0.049919 
0.059637 
0.159827 
0.165253 
0.065516 
0.067509 
0.067976 
0.080596 
0.167769 
0.084496 
0.086379 
0.113688 
0.116016 
0.193915 
0.209946 
0.086628 
0.054810 
0.020782 
0.030701 
0.092535 
0.168619 
0.061040 
0.050127 
0.128553 
0.075270 
0.134715 
0.182962 
0.076054 
0.089815 
0.139033 
0.062192 
0.085883 
0.137796 
0.058047 
0.062091 
0.070719 
0.072309 
0.036312 
0.018875 
0.028959 
0.080451 
0.138301 
0.086953 
0.128391 
0.052498 
0.044149 
0.128192 
0.171064 
0.154322 
0.223608 
0.179874 
0.083127 
0.100997 
0.072584 
0.055095 
0.106972 
0.093933 
0.096170 
0.125854 
0.127278 
0.198711 
0.213220 
0.072475 
0.028695 
0.057342 
0.073852 
0.079637 
0.118934 
0.216184 
0.192781 
0.106409 
0.174345 
0.231213 
0.222825 
0.136020 
0.260602 
0.224267 
0.074232 
0.037366 
0.074156 
0.118106 
0.177076 
0.072160 
0.061166 
0.020497 
0.014716 
0.037433 
0.011825 
0.000000 
0.028061 
0.087592 
0.139171 
0.084790 
0.146857 
0.207055 
0.155198 
0.195143 
0.108077 
0.039775 
0.048126 
0.032238 
0.031446 
0.069867 
0.101303 
0.052969 
0.060035 
0.051613 
0.100028 
0.187803 
0.137844 
0.180030 
0.169897 
0.074251 
0.085227 
0.112932 
0.074052 
0.035394 
0.027206 
0.048697 
0.043873 
0.061024 
0.026875 
0.018722 
0.048089 
0.062339 
0.176360 
0.204228 
0.107229 
0.146646 
0.081454 
0.026030 
0.035575 
0.086555 
0.072582 
0.168406 
0.210110 
0.220998 
0.113033 
0.062256 
0.022085 
0.025452 
0.056640 
0.064413 
0.054544 
0.025844 
0.062239 
0.191218 
0.154173 
0.197044 
0.116524 
0.078586 
0.067194 
0.133656 
0.069587 
0.098238 
0.191471 
0.222643 
0.264518 
0.282666 
0.251597 
0.175843 
0.234659 
0.121751 
0.074299 
0.136832 
0.086663 
0.033776 
0.034606 
0.083590 
0.112484 
0.096806 
0.121776 
0.134048 
0.125088 
0.103057 
0.227705 
0.130054 
0.087427 
0.108654 
0.186417 
0.114324 
0.073977 
0.041421 
0.053951 
0.022911 
0.000000 
0.000000 
0.000000 
0.016292 
0.057566 
0.077660 
0.065619 
0.066019 
0.177720 
0.206236 
0.119481 
0.181630 
0.105211 
0.067288 
0.143468 
0.103221 
0.078659 
0.081396 
0.187735 
0.140813 
0.162860 
0.129255 
0.159145 
0.127382 
0.154566 
0.101845 
0.071181 
0.042440 
0.095694 
0.178620 
0.174489 
0.104152 
0.100182 
0.148317 
0.100087 
0.085035 
0.059776 
0.020209 
0.017685 
0.020152 
0.059212 
0.081530 
0.083788 
0.094601 
0.034873 
0.012753 
0.043059 
0.127778 
0.066105 
0.078557 
0.125380 
0.254026 
0.226603 
0.169905 
0.057922 
0.029005 
0.056399 
0.122844 
0.047429 
0.023046 
0.075996 
0.218995 
0.162614 
0.191261 
0.081852 
0.072911 
0.071359 
0.071199 
0.068053 
0.149521 
0.138939 
0.133984 
0.248571 
0.320070 
0.293019 
0.186179 
0.248656 
0.230912 
0.125511 
0.101617 
0.133093 
0.045968 
0.033837 
0.102231 
0.186587 
0.207862 
0.215507 
0.205625 
0.181506 
0.115869 
0.219242 
0.128731 
0.185650 
0.215275 
0.238020 
0.180180 
0.077459 
0.098059 
0.153847 
0.088983 
0.023848 
0.016169 
0.045293 
0.060157 
0.169361 
0.195890 
0.066852 
0.026734 
0.055891 
0.064196 
0.046182 
0.089301 
0.138168 
0.077486 
0.145414 
0.238208 
0.221344 
0.123613 
0.225557 
0.232506 
0.158212 
0.191543 
0.097505 
0.044383 
0.061228 
0.074154 
0.071013 
0.065238 
0.137085 
0.098413 
0.103986 
0.175017 
0.185436 
0.141890 
0.202530 
0.238745 
0.182453 
0.062756 
0.047463 
0.018952 
0.031465 
0.095166 
0.177719 
0.165117 
0.048405 
0.010768 
0.022868 
0.059373 
0.074619 
0.073762 
0.081870 
0.193129 
0.146368 
0.090852 
0.081316 
0.080167 
0.076846 
0.057567 
0.022670 
0.034267 
0.108140 
0.218792 
0.200110 
0.138998 
0.084333 
0.170134 
0.176121 
0.112254 
0.082404 
0.096082 
0.144357 
0.077672 
0.130430 
0.277213 
0.281874 
0.229349 
0.202454 
0.245398 
0.221289 
0.081724 
0.051878 
0.025621 
0.065009 
0.181223 
0.116602 
0.084815 
0.074221 
0.066199 
0.063145 
0.071242 
0.181174 
0.121411 
0.114980 
0.084146 
0.076046 
0.066121 
0.072823 
0.190828 
0.180968 
0.195690 
0.065123 
0.048401 
0.121668 
0.066546 
0.099955 
0.174096 
0.055978 
0.010301 
0.013054 
0.029370 
0.049031 
0.037180 
0.060012 
0.074376 
0.198917 
0.284188 
0.229840 
0.099632 
0.149885 
0.213003 
0.153974 
0.180298 
0.062305 
0.020824 
0.053300 
0.159458 
0.170530 
0.096756 
0.061795 
0.029891 
0.035233 
0.071625 
0.110079 
0.106883 
0.151295 
0.208695 
0.138734 
0.072947 
0.121869 
0.046742 
0.050510 
0.144659 
0.127963 
0.071699 
0.019952 
0.016332 
0.052103 
0.083564 
0.199855 
0.172555 
0.070818 
0.097705 
0.157546 
0.114853 
0.230218 
0.262202 
0.224105 
0.075338 
0.041781 
0.097971 
0.191289 
0.120509 
0.104183 
0.146086 
0.079151 
0.108402 
0.122470 
0.210457 
0.174669 
0.069911 
0.059993 
0.035936 
0.071086 
0.197387 
0.173408 
0.172810 
0.224342 
0.168691 
0.217162 
0.070269 
0.021029 
0.026992 
0.104939 
0.222229 
0.127182 
0.077172 
0.039358 
0.008440 
0.010382 
0.024268 
0.093787 
0.180996 
0.175068 
0.059793 
0.022963 
0.027047 
0.064453 
0.207012 
0.239714 
0.248687 
0.076257 
0.026902 
0.053097 
0.057825 
0.048836 
0.087537 
0.027636 
0.000000 
0.020028 
0.080120 
0.138896 
0.061752 
0.068537 
0.076353 
0.110105 
0.192063 
0.108813 
0.070942 
0.162875 
0.171445 
0.167591 
0.089446 
0.022980 
0.000000 
0.015861 
0.059861 
0.096496 
0.136252 
0.053289 
0.030699 
0.052512 
0.068110 
0.172923 
0.201378 
0.191318 
0.139739 
0.149139 
0.058118 
0.048917 
0.023092 
0.023861 
0.079964 
0.138980 
0.056318 
0.017786 
0.042571 
0.137620 
0.132637 
0.194409 
0.101689 
0.031404 
0.039993 
0.098848 
0.103043 
0.261786 
0.290415 
0.265990 
0.099683 
0.107309 
0.195773 
0.235868 
0.083173 
0.037029 
0.064828 
0.100215 
0.150921 
0.103362 
0.178212 
0.100195 
0.043566 
0.068267 
0.059460 
0.039710 
0.099301 
0.196107 
0.232473 
0.252021 
0.131814 
0.174289 
0.055586 
0.016795 
0.049116 
0.176389 
0.246854 
0.225603 
0.189186 
0.108387 
0.000000 
0.000000 
0.000000 
0.038997 
0.113082 
0.112118 
0.036127 
0.022102 
0.049787 
0.036057 
0.080666 
0.130834 
0.223707 
0.072346 
0.021445 
0.047862 
0.125308 
0.080739 
0.129697 
0.041764 
0.012612 
0.043475 
0.144094 
0.130900 
0.086047 
0.163715 
0.160985 
0.069820 
0.066573 
0.035558 
0.030003 
0.096322 
0.187314 
0.096832 
0.032149 
0.011863 
0.000000 
0.000000 
0.024415 
0.063637 
0.066351 
0.044462 
0.082841 
0.132480 
0.059843 
0.068813 
0.070173 
0.071904 
0.075059 
0.059879 
0.028743 
0.030677 
0.044489 
0.018088 
0.024356 
0.054406 
0.052398 
0.017447 
0.021491 
0.081360 
0.157976 
0.138302 
0.080108 
0.029568 
0.058058 
0.170934 
0.114369 
0.214629 
0.206115 
0.245479 
0.127994 
0.193895 
0.145961 
0.184531 
0.065232 
0.023546 
0.061763 
0.171276 
0.099744 
0.041926 
0.064448 
0.069543 
0.075125 
0.195675 
0.168408 
0.054384 
0.043781 
0.102563 
0.118432 
0.180324 
0.071331 
0.054015 
0.015387 
0.000000 
0.015180 
0.060138 
0.095262 
0.128773 
0.151064 
0.188733 
0.041805 
0.020242 
0.014317 
0.064252 
0.213781 
0.214645 
0.073119 
0.067919 
0.160103 
0.071066 
0.081115 
0.129073 
0.223785 
0.074648 
0.023844 
0.024137 
0.045454 
0.032562 
0.043143 
0.012594 
0.000000 
0.021769 
0.094324 
0.188515 
0.111076 
0.082814 
0.066180 
0.035767 
0.061986 
0.056937 
0.028817 
0.067526 
0.162829 
0.064337 
0.033284 
0.048208 
0.015493 
0.010221 
0.050950 
0.144991 
0.112166 
0.104872 
0.151910 
0.087324 
0.044944 
0.060191 
0.033552 
0.053288 
0.131043 
0.063640 
0.067502 
0.094150 
0.138491 
0.046453 
0.023045 
0.047970 
0.118009 
0.038652 
0.009982 
0.026723 
0.087495 
0.174347 
0.160584 
0.054581 
0.059309 
0.161479 
0.087182 
0.142765 
0.208110 
0.223891 
0.127414 
0.207832 
0.088736 
0.071753 
0.056844 
0.025004 
0.057395 
0.169193 
0.096880 
0.032589 
0.050260 
0.127866 
0.092418 
0.175815 
0.097368 
0.030727 
0.045556 
0.128370 
0.063396 
0.055810 
0.017236 
0.000000 
0.000000 
0.000000 
0.000000 
0.029032 
0.096388 
0.182655 
0.187206 
0.108699 
0.141551 
0.082357 
0.038426 
0.071804 
0.208796 
0.209706 
0.081652 
0.100068 
0.177129 
0.106741 
0.177465 
0.222659 
0.249348 
0.097161 
0.072970 
0.059370 
0.035119 
0.045660 
0.019752 
0.000000 
0.000000 
0.014449 
0.071410 
0.200772 
0.187209 
0.114756 
0.077031 
0.064180 
0.160044 
0.164033 
0.063127 
0.064521 
0.070757 
0.047909 
0.094596 
0.167091 
0.055529 
0.026459 
0.073987 
0.147320 
0.224346 
0.197400 
0.131990 
0.070309 
0.105649 
0.171491 
0.060276 
0.038664 
0.091947 
0.074040 
0.165372 
0.188325 
0.132043 
0.048000 
0.046140 
0.026732 
0.041154 
0.012126 
0.000000 
0.000000 
0.021163 
0.055840 
0.058191 
0.019472 
0.020115 
0.058845 
0.060431 
0.143631 
0.109576 
0.113678 
0.086872 
0.173373 
0.065924 
0.057830 
0.126973 
0.046766 
0.035760 
0.086434 
0.131623 
0.043429 
0.020805 
0.042161 
0.032069 
0.068281 
0.062220 
0.019927 
0.017994 
0.049044 
0.027432 
0.018526 
0.000000 
0.000000 
0.000000 
0.000000 
0.000000 
0.043316 
0.140396 
0.106343 
0.100337 
0.042025 
0.120134 
0.152330 
0.101661 
0.077474 
0.078557 
0.075639 
0.060951 
0.136288 
0.100620 
0.081968 
0.079606 
0.111697 
0.199825 
0.154090 
0.220976 
0.178839 
0.088920 
0.130337 
0.044092 
0.019382 
0.040419 
0.028985 
0.061140 
0.087017 
0.117256 
0.214994 
0.174789 
0.066144 
0.074689 
0.103768 
0.071306 
0.139438 
0.105056 
0.106644 
0.182243 
0.195006 
0.064937 
0.055422 
0.165679 
0.213909 
0.220371 
0.140642 
0.168898 
0.148246 
0.226729 
0.211115 
0.076003 
0.066020 
0.164189 
0.071200 
0.081696 
0.143269 
0.193727 
0.095766 
0.125666 
0.043571 
0.019166 
0.000000 
0.000000 
0.000000 
0.000000 
0.021151 
0.046749 
0.017379 
0.018213 
0.048554 
0.029627 
0.053022 
0.067957 
0.136291 
0.075875 
0.093138 
0.033860 
0.033543 
0.086699 
0.043348 
0.054609 
0.036182 
0.043671 
0.015218 
0.009739 
0.010569 
0.023851 
0.084810 
0.132397 
0.043973 
0.024190 
0.062073 
0.072224 
0.057940 
0.028092 
0.042304 
0.018965 
0.000000 
0.000000 
0.027237 
0.087540 
0.078995 
0.132086 
0.050741 
0.051834 
0.103317 
0.210524 
0.173564 
0.069968 
0.057916 
0.031392 
0.053204 
0.071986 
0.161680 
0.073372 
0.052139 
0.109611 
0.203612 
0.246109 
0.114232 
0.051305 
0.081836 
0.033634 
0.044302 
0.123086 
0.084929 
0.138876 
0.097576 
0.093736 
0.208303 
0.105979 
0.042212 
0.068176 
0.170942 
0.077959 
0.101479 
0.177072 
0.171777 
0.098941 
0.065133 
0.019645 
0.017313 
0.052953 
0.066010 
0.064197 
0.046221 
0.103729 
0.219031 
0.222112 
0.119214 
0.073758 
0.073812 
0.158444 
0.061506 
0.064138 
0.174345 
0.195723 
0.070822 
0.050022 
0.026793 
0.041381 
0.012594 
0.000000 
0.000000 
0.012347 
0.041072 
0.116578 
0.047349 
0.053372 
0.124277 
0.045344 
0.029040 
0.057563 
0.072020 
0.093555 
0.137317 
0.053188 
0.063710 
0.175205 
0.108215 
0.170093 
0.063451 
0.020390 
0.017991 
0.045533 
0.022955 
0.045722 
0.136135 
0.086208 
0.030113 
0.051054 
0.171774 
0.228702 
0.178100 
0.090284 
0.140794 
0.081173 
0.028840 
0.020268 
0.051799 
0.137740 
0.092492 
0.062002 
0.028186 
0.029353 
0.077329 
0.212495 
0.110794 
0.063663 
0.121771 
0.050746 
0.031272 
0.059693 
0.170214 
0.112601 
0.083228 
0.096416 
0.147202 
0.192647 
0.081407 
0.064577 
0.134495 
0.054230 
0.031186 
0.056860 
0.070311 
0.092122 
0.139488 
0.094923 
0.169796 
0.075213 
0.062998 
0.085207 
0.197748 
0.083512 
0.083107 
0.105274 
0.070543 
0.032817 
0.014091 
0.000000 
0.000000 
0.000000 
0.000000 
0.000000 
0.012800 
0.062442 
0.176698 
0.109682 
0.078503 
0.136926 
0.091954 
0.064999 
0.021014 
0.018596 
0.056059 
0.064323 
0.021961 
0.017048 
0.043411 
0.121221 
0.043025 
0.015165 
0.015222 
0.040627 
0.027772 
0.049352 
0.031969 
0.065686 
0.089471 
0.034600 
0.045122 
0.123487 
0.084811 
0.135857 
0.082196 
0.038685 
0.072641 
0.209152 
0.131197 
0.213257 
0.103779 
0.034017 
0.055413 
0.154510 
0.061730 
0.038970 
0.093089 
0.072547 
0.028798 
0.026988 
0.093502 
0.184023 
0.100040 
0.060841 
0.122182 
0.154633 
0.095194 
0.073261 
0.073744 