# vtk DataFile Version 3.0
results.vtk
ASCII
DATASET RECTILINEAR_GRID
DIMENSIONS 100 100 1
X_COORDINATES 100 double
0.000000 0.010000 0.020000 0.030000 0.040000 0.050000 0.060000 0.070000 0.080000 0.090000 0.100000 0.110000 0.120000 0.130000 0.140000 0.150000 0.160000 0.170000 0.180000 0.190000 0.200000 0.210000 0.220000 0.230000 0.240000 0.250000 0.260000 0.270000 0.280000 0.290000 0.300000 0.310000 0.320000 0.330000 0.340000 0.350000 0.360000 0.370000 0.380000 0.390000 0.400000 0.410000 0.420000 0.430000 0.440000 0.450000 0.460000 0.470000 0.480000 0.490000 0.500000 0.510000 0.520000 0.530000 0.540000 0.550000 0.560000 0.570000 0.580000 0.590000 0.600000 0.610000 0.620000 0.630000 0.640000 0.650000 0.660000 0.670000 0.680000 0.690000 0.700000 0.710000 0.720000 0.730000 0.740000 0.750000 0.760000 0.770000 0.780000 0.790000 0.800000 0.810000 0.820000 0.830000 0.840000 0.850000 0.860000 0.870000 0.880000 0.890000 0.900000 0.910000 0.920000 0.930000 0.940000 0.950000 0.960000 0.970000 0.980000 0.990000 
Y_COORDINATES 100 double
0.000000 0.010000 0.020000 0.030000 0.040000 0.050000 0.060000 0.070000 0.080000 0.090000 0.100000 0.110000 0.120000 0.130000 0.140000 0.150000 0.160000 0.170000 0.180000 0.190000 0.200000 0.210000 0.220000 0.230000 0.240000 0.250000 0.260000 0.270000 0.280000 0.290000 0.300000 0.310000 0.320000 0.330000 0.340000 0.350000 0.360000 0.370000 0.380000 0.390000 0.400000 0.410000 0.420000 0.430000 0.440000 0.450000 0.460000 0.470000 0.480000 0.490000 0.500000 0.510000 0.520000 0.530000 0.540000 0.550000 0.560000 0.570000 0.580000 0.590000 0.600000 0.610000 0.620000 0.630000 0.640000 0.650000 0.660000 0.670000 0.680000 0.690000 0.700000 0.710000 0.720000 0.730000 0.740000 0.750000 0.760000 0.770000 0.780000 0.790000 0.800000 0.810000 0.820000 0.830000 0.840000 0.850000 0.860000 0.870000 0.880000 0.890000 0.900000 0.910000 0.920000 0.930000 0.940000 0.950000 0.960000 0.970000 0.980000 0.990000 
Z_COORDINATES 1 double
0
POINT_DATA 10000 
FIELD FieldData 1 
Concentração 1 10000 double 
0.027745 
0.027692 
0.024411 
0.021089 
0.020363 
0.018330 
0.018641 
0.018405 
0.015768 
0.013765 
0.016241 
0.019351 
0.017367 
0.014990 
0.017524 
0.021590 
0.022488 
0.020038 
0.018229 
0.018319 
0.020534 
0.023389 
0.022231 
0.020600 
0.020126 
0.017860 
0.013495 
0.011901 
0.012898 
0.012409 
0.013041 
0.016890 
0.018968 
0.016628 
0.012285 
0.011874 
0.013997 
0.012619 
0.009282 
0.009068 
0.012014 
0.015152 
0.017259 
0.014930 
0.007704 
0.000000 
0.004333 
0.010055 
0.016564 
0.022869 
0.026089 
0.021341 
0.013785 
0.006183 
0.000000 
0.000000 
0.000000 
0.013370 
0.025034 
0.029281 
0.025754 
0.022579 
0.018877 
0.017860 
0.016201 
0.013246 
0.013280 
0.015323 
0.014369 
0.012956 
0.009671 
0.007291 
0.005877 
0.006150 
0.007148 
0.008953 
0.008400 
0.004442 
0.000000 
0.000000 
0.005431 
0.009634 
0.014869 
0.019025 
0.022308 
0.022073 
0.017093 
0.013798 
0.012384 
0.014236 
0.017761 
0.018157 
0.012238 
0.007443 
0.007063 
0.010667 
0.014315 
0.011347 
0.006580 
0.000000 
0.026629 
0.026353 
0.023213 
0.019935 
0.018595 
0.016551 
0.016927 
0.016755 
0.014707 
0.014170 
0.017684 
0.020219 
0.016578 
0.013229 
0.015472 
0.020298 
0.022337 
0.020059 
0.016962 
0.016348 
0.018626 
0.021222 
0.020820 
0.020646 
0.020391 
0.018289 
0.014616 
0.013264 
0.014049 
0.013331 
0.013290 
0.016482 
0.018444 
0.016418 
0.012555 
0.012299 
0.013744 
0.011636 
0.008558 
0.008611 
0.011434 
0.014969 
0.017246 
0.015099 
0.007980 
0.000000 
0.004515 
0.009437 
0.014404 
0.020171 
0.024339 
0.020752 
0.013222 
0.005880 
0.000000 
0.000000 
0.005164 
0.015536 
0.026384 
0.029377 
0.024877 
0.020917 
0.017496 
0.017026 
0.016257 
0.014466 
0.014998 
0.016781 
0.015365 
0.013863 
0.010912 
0.009018 
0.007687 
0.007951 
0.008724 
0.009961 
0.008253 
0.004064 
0.000000 
0.002786 
0.006791 
0.010478 
0.015580 
0.019595 
0.021544 
0.020182 
0.015605 
0.013359 
0.012909 
0.014254 
0.016039 
0.015914 
0.011348 
0.007957 
0.007686 
0.010298 
0.013233 
0.011056 
0.007796 
0.004465 
0.022801 
0.022119 
0.019491 
0.017036 
0.014349 
0.011478 
0.011296 
0.012073 
0.012994 
0.015781 
0.020497 
0.021447 
0.015403 
0.011023 
0.013317 
0.019698 
0.023895 
0.021962 
0.016589 
0.014194 
0.015684 
0.017624 
0.018922 
0.021053 
0.020558 
0.019351 
0.017633 
0.016143 
0.015202 
0.013260 
0.011399 
0.012661 
0.014454 
0.013945 
0.012267 
0.013097 
0.013487 
0.010639 
0.008520 
0.009095 
0.010853 
0.013476 
0.014935 
0.013552 
0.008327 
0.004403 
0.005626 
0.008579 
0.010945 
0.015577 
0.020975 
0.020030 
0.013377 
0.006484 
0.000000 
0.000000 
0.007394 
0.017860 
0.027155 
0.027759 
0.022112 
0.016739 
0.013408 
0.013198 
0.014487 
0.016198 
0.017678 
0.017914 
0.015394 
0.013970 
0.012267 
0.011675 
0.010513 
0.010775 
0.011589 
0.012483 
0.009078 
0.004128 
0.000000 
0.003990 
0.007716 
0.010310 
0.014680 
0.018470 
0.018052 
0.015586 
0.013569 
0.014877 
0.016425 
0.016052 
0.013893 
0.012315 
0.010573 
0.010265 
0.010080 
0.010219 
0.011231 
0.010027 
0.008590 
0.006433 
0.017971 
0.017803 
0.017014 
0.016525 
0.013028 
0.008809 
0.007914 
0.010356 
0.014781 
0.019495 
0.022669 
0.020985 
0.013699 
0.009158 
0.010864 
0.016411 
0.021138 
0.020512 
0.015652 
0.012658 
0.013209 
0.015357 
0.018088 
0.021052 
0.019439 
0.018868 
0.019736 
0.018413 
0.015312 
0.011282 
0.008466 
0.009743 
0.012984 
0.014375 
0.014055 
0.015340 
0.014707 
0.011517 
0.010265 
0.010524 
0.010012 
0.010568 
0.011944 
0.012398 
0.008979 
0.006128 
0.005531 
0.006004 
0.006113 
0.010190 
0.015745 
0.017341 
0.013761 
0.008978 
0.003675 
0.000000 
0.007820 
0.017596 
0.024546 
0.023556 
0.018983 
0.014113 
0.011484 
0.011214 
0.014024 
0.018631 
0.020071 
0.017849 
0.014291 
0.013059 
0.012130 
0.011829 
0.010105 
0.009639 
0.010820 
0.012432 
0.009527 
0.004904 
0.000000 
0.003730 
0.006132 
0.007935 
0.011977 
0.016114 
0.015392 
0.013515 
0.014319 
0.018779 
0.021283 
0.018490 
0.013460 
0.011515 
0.012315 
0.014184 
0.013670 
0.011939 
0.011322 
0.009246 
0.007577 
0.005927 
0.012707 
0.013053 
0.014247 
0.016177 
0.014139 
0.009784 
0.008859 
0.013243 
0.020425 
0.025654 
0.025649 
0.020618 
0.012708 
0.008769 
0.009926 
0.012799 
0.015650 
0.016718 
0.015350 
0.013672 
0.013594 
0.015764 
0.018637 
0.020813 
0.017700 
0.016108 
0.017047 
0.015867 
0.012880 
0.008560 
0.005838 
0.009008 
0.014227 
0.016761 
0.015687 
0.015646 
0.014343 
0.012344 
0.012507 
0.011960 
0.009732 
0.008776 
0.010464 
0.012537 
0.010875 
0.009076 
0.007128 
0.004801 
0.000000 
0.006675 
0.011872 
0.014534 
0.014547 
0.012096 
0.006206 
0.000000 
0.005130 
0.012398 
0.017414 
0.017028 
0.015116 
0.012456 
0.011305 
0.010937 
0.013307 
0.018294 
0.020135 
0.017604 
0.013215 
0.011354 
0.011239 
0.011381 
0.009266 
0.007611 
0.008492 
0.010917 
0.010390 
0.007924 
0.005931 
0.005435 
0.005615 
0.006435 
0.010079 
0.014949 
0.016038 
0.015451 
0.016868 
0.021294 
0.023282 
0.019550 
0.014506 
0.013714 
0.015413 
0.016443 
0.014711 
0.013206 
0.013147 
0.010444 
0.008296 
0.007106 
0.011661 
0.011752 
0.013000 
0.015696 
0.016082 
0.012890 
0.012392 
0.017661 
0.024832 
0.029008 
0.026893 
0.020564 
0.012903 
0.009852 
0.011134 
0.012436 
0.013639 
0.016030 
0.017394 
0.016538 
0.015563 
0.016798 
0.019285 
0.020613 
0.016949 
0.013542 
0.011996 
0.010194 
0.008078 
0.004914 
0.000000 
0.007057 
0.012314 
0.015155 
0.014625 
0.014995 
0.014694 
0.014707 
0.016786 
0.016035 
0.012680 
0.010475 
0.012289 
0.015209 
0.014623 
0.014043 
0.011924 
0.008724 
0.006159 
0.007514 
0.010608 
0.012961 
0.015074 
0.014151 
0.007981 
0.000000 
0.000000 
0.005334 
0.008623 
0.010301 
0.011217 
0.010329 
0.010055 
0.010173 
0.011464 
0.015634 
0.019177 
0.018857 
0.014524 
0.011457 
0.011052 
0.010810 
0.009103 
0.007131 
0.008005 
0.011307 
0.012674 
0.011643 
0.010103 
0.008246 
0.007565 
0.007622 
0.010697 
0.016100 
0.019040 
0.019555 
0.020723 
0.023170 
0.022760 
0.018055 
0.014574 
0.016222 
0.019126 
0.019082 
0.015657 
0.013586 
0.013740 
0.012001 
0.011476 
0.011650 
0.015213 
0.015034 
0.015231 
0.016357 
0.017166 
0.015624 
0.016305 
0.022105 
0.027638 
0.029370 
0.025988 
0.019654 
0.012664 
0.009924 
0.010743 
0.011916 
0.012824 
0.015580 
0.017601 
0.017703 
0.018291 
0.019543 
0.021331 
0.022527 
0.020225 
0.015846 
0.011200 
0.008042 
0.006345 
0.005455 
0.005025 
0.007516 
0.009378 
0.010499 
0.010472 
0.011746 
0.013225 
0.014981 
0.018610 
0.019024 
0.015762 
0.012846 
0.014063 
0.016255 
0.016264 
0.017265 
0.016704 
0.014050 
0.010571 
0.008080 
0.008015 
0.009682 
0.013491 
0.015242 
0.010708 
0.004409 
0.000000 
0.000000 
0.000000 
0.004140 
0.007142 
0.008238 
0.008883 
0.009624 
0.009999 
0.012540 
0.016060 
0.018181 
0.016303 
0.013315 
0.012136 
0.010844 
0.009292 
0.007196 
0.008004 
0.011290 
0.013113 
0.013023 
0.011160 
0.009481 
0.009613 
0.009727 
0.011592 
0.015461 
0.018292 
0.019614 
0.022106 
0.024320 
0.022929 
0.017207 
0.013463 
0.015406 
0.019588 
0.020519 
0.017130 
0.013934 
0.012917 
0.012273 
0.013848 
0.015370 
0.017309 
0.017861 
0.018099 
0.017105 
0.016028 
0.015180 
0.016423 
0.021915 
0.026244 
0.026315 
0.023091 
0.018517 
0.013055 
0.010328 
0.009110 
0.008953 
0.009679 
0.012608 
0.015925 
0.018472 
0.021914 
0.022940 
0.023549 
0.026313 
0.026983 
0.022437 
0.015293 
0.010871 
0.009189 
0.009472 
0.009297 
0.009620 
0.008906 
0.008388 
0.007767 
0.007899 
0.008999 
0.011174 
0.015079 
0.016375 
0.013898 
0.011659 
0.012664 
0.014139 
0.015577 
0.018256 
0.019126 
0.017817 
0.013675 
0.008201 
0.004967 
0.005755 
0.010859 
0.015124 
0.013524 
0.008533 
0.004307 
0.000000 
0.000000 
0.000000 
0.005464 
0.008457 
0.008717 
0.008869 
0.009653 
0.011703 
0.013486 
0.016181 
0.017356 
0.014986 
0.012149 
0.009141 
0.006822 
0.004615 
0.006181 
0.009341 
0.012107 
0.013614 
0.011299 
0.009280 
0.010115 
0.012019 
0.014182 
0.016360 
0.017429 
0.017960 
0.021127 
0.023983 
0.023070 
0.018074 
0.014115 
0.015484 
0.020683 
0.023102 
0.020352 
0.016446 
0.013502 
0.011197 
0.011112 
0.011551 
0.014863 
0.016137 
0.017236 
0.015521 
0.012554 
0.011194 
0.012677 
0.018598 
0.024290 
0.024534 
0.021770 
0.018292 
0.014231 
0.011966 
0.009018 
0.007351 
0.007445 
0.009433 
0.012917 
0.017057 
0.022142 
0.022951 
0.023175 
0.027544 
0.030131 
0.025701 
0.018481 
0.014468 
0.013574 
0.014794 
0.013504 
0.011838 
0.010714 
0.010457 
0.009273 
0.007290 
0.006819 
0.008922 
0.012765 
0.013978 
0.011357 
0.008664 
0.008822 
0.010879 
0.014548 
0.018282 
0.019526 
0.018254 
0.013432 
0.006668 
0.000000 
0.000000 
0.008316 
0.014236 
0.016330 
0.013870 
0.010488 
0.005603 
0.000000 
0.000000 
0.006589 
0.011309 
0.011077 
0.010477 
0.012301 
0.014294 
0.013380 
0.014688 
0.017842 
0.017541 
0.014190 
0.009469 
0.005303 
0.000000 
0.005731 
0.008799 
0.011121 
0.013041 
0.011338 
0.009581 
0.010617 
0.013885 
0.016506 
0.017171 
0.016191 
0.015625 
0.018584 
0.021590 
0.021865 
0.019404 
0.016180 
0.016010 
0.019611 
0.021357 
0.019262 
0.017004 
0.014659 
0.011559 
0.009197 
0.007694 
0.013297 
0.014462 
0.014872 
0.012191 
0.008945 
0.007765 
0.009153 
0.014676 
0.020933 
0.021777 
0.020645 
0.018559 
0.015401 
0.013661 
0.010595 
0.009088 
0.009039 
0.009719 
0.011976 
0.014996 
0.019388 
0.020690 
0.021865 
0.027044 
0.029199 
0.024276 
0.018161 
0.014851 
0.015282 
0.018357 
0.018143 
0.016054 
0.014929 
0.014643 
0.012895 
0.009434 
0.007551 
0.009034 
0.011767 
0.012019 
0.009690 
0.006454 
0.005369 
0.008596 
0.014279 
0.018780 
0.020380 
0.019209 
0.014140 
0.007048 
0.000000 
0.003652 
0.008938 
0.013761 
0.017717 
0.018627 
0.017243 
0.011706 
0.004741 
0.000000 
0.006816 
0.012798 
0.014012 
0.014158 
0.016760 
0.017459 
0.013830 
0.013529 
0.017900 
0.020633 
0.018339 
0.013075 
0.008542 
0.007648 
0.011281 
0.012648 
0.011902 
0.012180 
0.011906 
0.010862 
0.010354 
0.011918 
0.013992 
0.014807 
0.014376 
0.013217 
0.015407 
0.019234 
0.021301 
0.020589 
0.018151 
0.016799 
0.017546 
0.016649 
0.014048 
0.013214 
0.013517 
0.013189 
0.010867 
0.007958 
0.012789 
0.013163 
0.012075 
0.009350 
0.007741 
0.007341 
0.007539 
0.010825 
0.015870 
0.017125 
0.017325 
0.016956 
0.015732 
0.015768 
0.013954 
0.013545 
0.013231 
0.012639 
0.012874 
0.012515 
0.013950 
0.015282 
0.017595 
0.023018 
0.025309 
0.021971 
0.018188 
0.015621 
0.016748 
0.021416 
0.023926 
0.022049 
0.018456 
0.015597 
0.013633 
0.011136 
0.009160 
0.009563 
0.010035 
0.009390 
0.008041 
0.004519 
0.000000 
0.004521 
0.010647 
0.014731 
0.016743 
0.017325 
0.014335 
0.008938 
0.005097 
0.006587 
0.010429 
0.013016 
0.015919 
0.018723 
0.019212 
0.014158 
0.006344 
0.000000 
0.004796 
0.011749 
0.016445 
0.019155 
0.022632 
0.021374 
0.015313 
0.013869 
0.018362 
0.021855 
0.020472 
0.016353 
0.012822 
0.014323 
0.019699 
0.019861 
0.015494 
0.013093 
0.013413 
0.013225 
0.011818 
0.011575 
0.013345 
0.014813 
0.015463 
0.013050 
0.013549 
0.017529 
0.021056 
0.020587 
0.018223 
0.017111 
0.016262 
0.013976 
0.011189 
0.011433 
0.014178 
0.016711 
0.014676 
0.010452 
0.012966 
0.012709 
0.011700 
0.010091 
0.010493 
0.009340 
0.006824 
0.006670 
0.011674 
0.015305 
0.016229 
0.015649 
0.014340 
0.015073 
0.015096 
0.016152 
0.015641 
0.015220 
0.014122 
0.011349 
0.011054 
0.012162 
0.013934 
0.017938 
0.020729 
0.020287 
0.019081 
0.017994 
0.019576 
0.024607 
0.029271 
0.027494 
0.020072 
0.014975 
0.014020 
0.013171 
0.011256 
0.010687 
0.008641 
0.005546 
0.004423 
0.002382 
0.000000 
0.000000 
0.009610 
0.012610 
0.013341 
0.014224 
0.012798 
0.009701 
0.007262 
0.008752 
0.012089 
0.012528 
0.012384 
0.014193 
0.015536 
0.011455 
0.004298 
0.000000 
0.000000 
0.010627 
0.019664 
0.025293 
0.029761 
0.027893 
0.019424 
0.016782 
0.020932 
0.024371 
0.024013 
0.020921 
0.018274 
0.019974 
0.025842 
0.024529 
0.018446 
0.013579 
0.012680 
0.014187 
0.015289 
0.015062 
0.017046 
0.018207 
0.018890 
0.015414 
0.015241 
0.017894 
0.019707 
0.018237 
0.017034 
0.018292 
0.017659 
0.015022 
0.012679 
0.014175 
0.017364 
0.019178 
0.016338 
0.011143 
0.022146 
0.021074 
0.020302 
0.018361 
0.019629 
0.013032 
0.005889 
0.000000 
0.013034 
0.021831 
0.019376 
0.013990 
0.009031 
0.009143 
0.011388 
0.014798 
0.017470 
0.021640 
0.020222 
0.015164 
0.014838 
0.015792 
0.017075 
0.019291 
0.020553 
0.020998 
0.020485 
0.019952 
0.021218 
0.026068 
0.034314 
0.033505 
0.021926 
0.015242 
0.015203 
0.015048 
0.012799 
0.012748 
0.009694 
0.000000 
0.000000 
0.000000 
0.000000 
0.011307 
0.018180 
0.015818 
0.011929 
0.011213 
0.010976 
0.010399 
0.010384 
0.014919 
0.019356 
0.016418 
0.012287 
0.013552 
0.017486 
0.012657 
0.000000 
0.000000 
0.000000 
0.014192 
0.029168 
0.036925 
0.040555 
0.038512 
0.026061 
0.021975 
0.026839 
0.034260 
0.037710 
0.036058 
0.032414 
0.028904 
0.032139 
0.027734 
0.022729 
0.017670 
0.015412 
0.020031 
0.025191 
0.023974 
0.026431 
0.027830 
0.028897 
0.024047 
0.025569 
0.026396 
0.023114 
0.018366 
0.015632 
0.017264 
0.017178 
0.015520 
0.016493 
0.022721 
0.027286 
0.026278 
0.021918 
0.014251 
0.049020 
0.046330 
0.044103 
0.039371 
0.044449 
0.024241 
0.009569 
0.010228 
0.028006 
0.045684 
0.031582 
0.016508 
0.000000 
0.000000 
0.006106 
0.012130 
0.021994 
0.037881 
0.037377 
0.028231 
0.031452 
0.032261 
0.035137 
0.035341 
0.027556 
0.023736 
0.020076 
0.019343 
0.022638 
0.030889 
0.049390 
0.049882 
0.029031 
0.020422 
0.023088 
0.025666 
0.022725 
0.027203 
0.026041 
0.018155 
0.017318 
0.022079 
0.024357 
0.034634 
0.040086 
0.025096 
0.013881 
0.013031 
0.013647 
0.013235 
0.017183 
0.031069 
0.038348 
0.027468 
0.016909 
0.020414 
0.033728 
0.028632 
0.012271 
0.000000 
0.007528 
0.023114 
0.049219 
0.061446 
0.065797 
0.065103 
0.041487 
0.035386 
0.041552 
0.057189 
0.066940 
0.068903 
0.064458 
0.048575 
0.049715 
0.039502 
0.038886 
0.035868 
0.029525 
0.039270 
0.049779 
0.044646 
0.051419 
0.057378 
0.060029 
0.046948 
0.052848 
0.053205 
0.043773 
0.031627 
0.018745 
0.015913 
0.016413 
0.019134 
0.028169 
0.046410 
0.056255 
0.050742 
0.041266 
0.024442 
0.051157 
0.051685 
0.042590 
0.041189 
0.048398 
0.025742 
0.011704 
0.018128 
0.041592 
0.055636 
0.037883 
0.026526 
0.010568 
0.000000 
0.000000 
0.000000 
0.012278 
0.031646 
0.045040 
0.044650 
0.059545 
0.061896 
0.066025 
0.064790 
0.042384 
0.031576 
0.019335 
0.016691 
0.022020 
0.023360 
0.032850 
0.033700 
0.025485 
0.030597 
0.038780 
0.043191 
0.039903 
0.048549 
0.050916 
0.044577 
0.044999 
0.052720 
0.052987 
0.053631 
0.045303 
0.024547 
0.017506 
0.025379 
0.027457 
0.019353 
0.022966 
0.039279 
0.038659 
0.031551 
0.020694 
0.018979 
0.031618 
0.038273 
0.025261 
0.019696 
0.015260 
0.017205 
0.031409 
0.045686 
0.061156 
0.062834 
0.044265 
0.044401 
0.043675 
0.043456 
0.044779 
0.051266 
0.055620 
0.042910 
0.045918 
0.045131 
0.059270 
0.065355 
0.050618 
0.053443 
0.055930 
0.049437 
0.054671 
0.071359 
0.068188 
0.048100 
0.049742 
0.051795 
0.057413 
0.048997 
0.024447 
0.013530 
0.017225 
0.031473 
0.049318 
0.070767 
0.072877 
0.060971 
0.039641 
0.023793 
0.044855 
0.046959 
0.039225 
0.045023 
0.046506 
0.024117 
0.014533 
0.028646 
0.057958 
0.061424 
0.046219 
0.044897 
0.023789 
0.012711 
0.013324 
0.006591 
0.000000 
0.020283 
0.039071 
0.047324 
0.069728 
0.078927 
0.075395 
0.077154 
0.058563 
0.051311 
0.029123 
0.022824 
0.030491 
0.027139 
0.033146 
0.034535 
0.032013 
0.045107 
0.050016 
0.044449 
0.041784 
0.042117 
0.049011 
0.059329 
0.064105 
0.068890 
0.069747 
0.055926 
0.044733 
0.025836 
0.026283 
0.046269 
0.051819 
0.029928 
0.023795 
0.035484 
0.037355 
0.044910 
0.036816 
0.023882 
0.027686 
0.036055 
0.031333 
0.036257 
0.029716 
0.018745 
0.020253 
0.027218 
0.035897 
0.034383 
0.026744 
0.034155 
0.043608 
0.039614 
0.032249 
0.034884 
0.034732 
0.034496 
0.049520 
0.051878 
0.062142 
0.074439 
0.058321 
0.052178 
0.059406 
0.055259 
0.050875 
0.062956 
0.054667 
0.044868 
0.051482 
0.049119 
0.054790 
0.049456 
0.025396 
0.015326 
0.025640 
0.048652 
0.066732 
0.082203 
0.082911 
0.062779 
0.038905 
0.032834 
0.064576 
0.066420 
0.058161 
0.073421 
0.067565 
0.034166 
0.020531 
0.035285 
0.065135 
0.069901 
0.050752 
0.047212 
0.026575 
0.019453 
0.024780 
0.013642 
0.007684 
0.020887 
0.041579 
0.046712 
0.057089 
0.073106 
0.074096 
0.076173 
0.065987 
0.056517 
0.030435 
0.020731 
0.023909 
0.028552 
0.044952 
0.047944 
0.034047 
0.034256 
0.036173 
0.041499 
0.052775 
0.045030 
0.046409 
0.052204 
0.054167 
0.065424 
0.066940 
0.044747 
0.029298 
0.018093 
0.021834 
0.038087 
0.047823 
0.029258 
0.024149 
0.035794 
0.037390 
0.052649 
0.056519 
0.038862 
0.038480 
0.040771 
0.030063 
0.034245 
0.039146 
0.028864 
0.031283 
0.036782 
0.038416 
0.027851 
0.018915 
0.020726 
0.032158 
0.040152 
0.035697 
0.036141 
0.026930 
0.030336 
0.052739 
0.062298 
0.067500 
0.073437 
0.059716 
0.044049 
0.045171 
0.039042 
0.038244 
0.051228 
0.052406 
0.054819 
0.062710 
0.063997 
0.071061 
0.068796 
0.039058 
0.023388 
0.028928 
0.036747 
0.042120 
0.054904 
0.070639 
0.065195 
0.050249 
0.054971 
0.078305 
0.075363 
0.066289 
0.085065 
0.073577 
0.040840 
0.029247 
0.040011 
0.053477 
0.056790 
0.038061 
0.030123 
0.016230 
0.010138 
0.012741 
0.006493 
0.000000 
0.018183 
0.036314 
0.044167 
0.045274 
0.062935 
0.073118 
0.068311 
0.066577 
0.048875 
0.028387 
0.025567 
0.023899 
0.025215 
0.036320 
0.045109 
0.035968 
0.034472 
0.035152 
0.045936 
0.059743 
0.056179 
0.057288 
0.053009 
0.040683 
0.045540 
0.051314 
0.039772 
0.026745 
0.021766 
0.026042 
0.029534 
0.031896 
0.020894 
0.015722 
0.022493 
0.030567 
0.052903 
0.061056 
0.047563 
0.045600 
0.033137 
0.019620 
0.023175 
0.034990 
0.035527 
0.050777 
0.064610 
0.069802 
0.050703 
0.031866 
0.018997 
0.019651 
0.027528 
0.029858 
0.025677 
0.020296 
0.033722 
0.063103 
0.067200 
0.068898 
0.055229 
0.042574 
0.036523 
0.041817 
0.036513 
0.045068 
0.063744 
0.075084 
0.089774 
0.099356 
0.093249 
0.081873 
0.081882 
0.057999 
0.040438 
0.041890 
0.036044 
0.025515 
0.028691 
0.044956 
0.053434 
0.051846 
0.056769 
0.063997 
0.060907 
0.058011 
0.077343 
0.062762 
0.048311 
0.049979 
0.060483 
0.052211 
0.040166 
0.030163 
0.028144 
0.016441 
0.000000 
0.000000 
0.000000 
0.011480 
0.027675 
0.037365 
0.033975 
0.034809 
0.055061 
0.063791 
0.054902 
0.058562 
0.046535 
0.036065 
0.046039 
0.046794 
0.042523 
0.044756 
0.062393 
0.059789 
0.057093 
0.053532 
0.053200 
0.051129 
0.050923 
0.045346 
0.037475 
0.030952 
0.042553 
0.055458 
0.053927 
0.045228 
0.043771 
0.048091 
0.045959 
0.042997 
0.031041 
0.017172 
0.014623 
0.017027 
0.030397 
0.041472 
0.043185 
0.040435 
0.022972 
0.013040 
0.020242 
0.035542 
0.034350 
0.041657 
0.057645 
0.080173 
0.072710 
0.052578 
0.030583 
0.023252 
0.028175 
0.033062 
0.022457 
0.020014 
0.039642 
0.070685 
0.070234 
0.065788 
0.045497 
0.039636 
0.037937 
0.037576 
0.036827 
0.049287 
0.057933 
0.064364 
0.089485 
0.111381 
0.107147 
0.089261 
0.090840 
0.080442 
0.058554 
0.044990 
0.038250 
0.023657 
0.025746 
0.046338 
0.061415 
0.065683 
0.067959 
0.063345 
0.058946 
0.054492 
0.071708 
0.061469 
0.062789 
0.067452 
0.070565 
0.057069 
0.041000 
0.044562 
0.050224 
0.037527 
0.016876 
0.011698 
0.018444 
0.027477 
0.048295 
0.054999 
0.032486 
0.020589 
0.027739 
0.032856 
0.031569 
0.039054 
0.043299 
0.040999 
0.060815 
0.078696 
0.073099 
0.059405 
0.075283 
0.078809 
0.068295 
0.063029 
0.043606 
0.029958 
0.032167 
0.037174 
0.036507 
0.033895 
0.041840 
0.042104 
0.044927 
0.054354 
0.059691 
0.060000 
0.068750 
0.073155 
0.056607 
0.030856 
0.021797 
0.015516 
0.022433 
0.040902 
0.053975 
0.047054 
0.022776 
0.011475 
0.017062 
0.030118 
0.038002 
0.039765 
0.044850 
0.064692 
0.062105 
0.048945 
0.044714 
0.043591 
0.040134 
0.029878 
0.019979 
0.026049 
0.049019 
0.070664 
0.068563 
0.058421 
0.045178 
0.053360 
0.055795 
0.050250 
0.042700 
0.042862 
0.047239 
0.044262 
0.064098 
0.096670 
0.101562 
0.090979 
0.089014 
0.087114 
0.073091 
0.042031 
0.026359 
0.019992 
0.033787 
0.058280 
0.054722 
0.046075 
0.040974 
0.032303 
0.031940 
0.037080 
0.058249 
0.056590 
0.053353 
0.044253 
0.039255 
0.035052 
0.038797 
0.062318 
0.070726 
0.063668 
0.033058 
0.022621 
0.031154 
0.031539 
0.042105 
0.050293 
0.026580 
0.010643 
0.012910 
0.020767 
0.025966 
0.026123 
0.031893 
0.040264 
0.067279 
0.088326 
0.076329 
0.054759 
0.065991 
0.075974 
0.066610 
0.057204 
0.031038 
0.016609 
0.024786 
0.044063 
0.049579 
0.040229 
0.030721 
0.023527 
0.026327 
0.037602 
0.050597 
0.056076 
0.066076 
0.071465 
0.056426 
0.035610 
0.031709 
0.020978 
0.024210 
0.043137 
0.048267 
0.033990 
0.016186 
0.013516 
0.025574 
0.040752 
0.059401 
0.052835 
0.037604 
0.044685 
0.054743 
0.055921 
0.077530 
0.086222 
0.073773 
0.041791 
0.031073 
0.044608 
0.062636 
0.055612 
0.048380 
0.048587 
0.042359 
0.049284 
0.054822 
0.064667 
0.054262 
0.036368 
0.032074 
0.028344 
0.040840 
0.069847 
0.079235 
0.081212 
0.085348 
0.076029 
0.069482 
0.036026 
0.017922 
0.020739 
0.045479 
0.070911 
0.059748 
0.043802 
0.031741 
0.009430 
0.010553 
0.017667 
0.040273 
0.057813 
0.055074 
0.032152 
0.020487 
0.021661 
0.033970 
0.064639 
0.080072 
0.077705 
0.039326 
0.020540 
0.024438 
0.028160 
0.030322 
0.035207 
0.017346 
0.000000 
0.013271 
0.031306 
0.041107 
0.032661 
0.035025 
0.039677 
0.050647 
0.063447 
0.050273 
0.040385 
0.057183 
0.067564 
0.058306 
0.038640 
0.016366 
0.000000 
0.010962 
0.027598 
0.039572 
0.040721 
0.027514 
0.022299 
0.026901 
0.034312 
0.052905 
0.061638 
0.063058 
0.057874 
0.048330 
0.029464 
0.023085 
0.016510 
0.017339 
0.031337 
0.040004 
0.026740 
0.014382 
0.019310 
0.039341 
0.052524 
0.062447 
0.045113 
0.025696 
0.029041 
0.045704 
0.055922 
0.088542 
0.100788 
0.090099 
0.055341 
0.051349 
0.064722 
0.070911 
0.043562 
0.028573 
0.034013 
0.044040 
0.049879 
0.046717 
0.055157 
0.043916 
0.031095 
0.034516 
0.031123 
0.029039 
0.046482 
0.067999 
0.079440 
0.082116 
0.061456 
0.053528 
0.026709 
0.013070 
0.023015 
0.052986 
0.076109 
0.074592 
0.063854 
0.050258 
0.000000 
0.000000 
0.000000 
0.026139 
0.050396 
0.050025 
0.027512 
0.019538 
0.025116 
0.027487 
0.044383 
0.062826 
0.072968 
0.038647 
0.018806 
0.022103 
0.032763 
0.031483 
0.033823 
0.017294 
0.007972 
0.019251 
0.042548 
0.051091 
0.043551 
0.049044 
0.047040 
0.036263 
0.035337 
0.027159 
0.024970 
0.042885 
0.059005 
0.042999 
0.023390 
0.011266 
0.000000 
0.000000 
0.017292 
0.032006 
0.034737 
0.030091 
0.034830 
0.038165 
0.031073 
0.034971 
0.036326 
0.037689 
0.038367 
0.031504 
0.022521 
0.021587 
0.021286 
0.014894 
0.017658 
0.024931 
0.023093 
0.013296 
0.015024 
0.032307 
0.050647 
0.055357 
0.040180 
0.023463 
0.029721 
0.051640 
0.055028 
0.078269 
0.088225 
0.087094 
0.063499 
0.066142 
0.061334 
0.058758 
0.034118 
0.020733 
0.030769 
0.050511 
0.043111 
0.029803 
0.033025 
0.035004 
0.037718 
0.055329 
0.048180 
0.028462 
0.029699 
0.046134 
0.053618 
0.057221 
0.036442 
0.024680 
0.010673 
0.000000 
0.010868 
0.030641 
0.049508 
0.060805 
0.064273 
0.063042 
0.017283 
0.013438 
0.013380 
0.032770 
0.065191 
0.066100 
0.038602 
0.034090 
0.045552 
0.037354 
0.044679 
0.061489 
0.073233 
0.041017 
0.021401 
0.018473 
0.021772 
0.020286 
0.018661 
0.007901 
0.000000 
0.014888 
0.039506 
0.059605 
0.051164 
0.043283 
0.035141 
0.026794 
0.031146 
0.028790 
0.022893 
0.033936 
0.048035 
0.033415 
0.024056 
0.022183 
0.011557 
0.010159 
0.025202 
0.046363 
0.050362 
0.047955 
0.049151 
0.039202 
0.030940 
0.031751 
0.025116 
0.028075 
0.038708 
0.032283 
0.033692 
0.039776 
0.040401 
0.023038 
0.016733 
0.021216 
0.027387 
0.015000 
0.008907 
0.016746 
0.035176 
0.050672 
0.044979 
0.026205 
0.028135 
0.046323 
0.045224 
0.061648 
0.074384 
0.076124 
0.060829 
0.065642 
0.046263 
0.037344 
0.028540 
0.019416 
0.028348 
0.048295 
0.039768 
0.023155 
0.024371 
0.035231 
0.038270 
0.051792 
0.040108 
0.021744 
0.022722 
0.036244 
0.031854 
0.027165 
0.012764 
0.000000 
0.000000 
0.000000 
0.000000 
0.019395 
0.042462 
0.059487 
0.061380 
0.049910 
0.040383 
0.033455 
0.026641 
0.037441 
0.063290 
0.063862 
0.041750 
0.043292 
0.053786 
0.047611 
0.057642 
0.072432 
0.079145 
0.052004 
0.039155 
0.030749 
0.023306 
0.021475 
0.012744 
0.000000 
0.000000 
0.012991 
0.034718 
0.060508 
0.061526 
0.052476 
0.040208 
0.033241 
0.045328 
0.046521 
0.031968 
0.033283 
0.036659 
0.032804 
0.040427 
0.046281 
0.026009 
0.019753 
0.036398 
0.059523 
0.072316 
0.066170 
0.055910 
0.044911 
0.048856 
0.051977 
0.031837 
0.026989 
0.038345 
0.036978 
0.050011 
0.059256 
0.052094 
0.030149 
0.022326 
0.017035 
0.016594 
0.007193 
0.000000 
0.000000 
0.013385 
0.025719 
0.026406 
0.015811 
0.016426 
0.027771 
0.031499 
0.046287 
0.050551 
0.052696 
0.046892 
0.053730 
0.034718 
0.029583 
0.034975 
0.023666 
0.023978 
0.034831 
0.035905 
0.020039 
0.014724 
0.019318 
0.022313 
0.033183 
0.030133 
0.016538 
0.014983 
0.023455 
0.020727 
0.014734 
0.000000 
0.000000 
0.000000 
0.000000 
0.000000 
0.019176 
0.042052 
0.046683 
0.044221 
0.030310 
0.046493 
0.048519 
0.044957 
0.040736 
0.041128 
0.038687 
0.032207 
0.041239 
0.043692 
0.042422 
0.043197 
0.053109 
0.069042 
0.066931 
0.070372 
0.055629 
0.037515 
0.035101 
0.019751 
0.012192 
0.016332 
0.019659 
0.031945 
0.044677 
0.054446 
0.067118 
0.054438 
0.034956 
0.037691 
0.044467 
0.036971 
0.044119 
0.046072 
0.047158 
0.055549 
0.053930 
0.030032 
0.026260 
0.047155 
0.064446 
0.068802 
0.058817 
0.059891 
0.063578 
0.073273 
0.065361 
0.039293 
0.034206 
0.046973 
0.036301 
0.041644 
0.057959 
0.061587 
0.040796 
0.033165 
0.019255 
0.011706 
0.000000 
0.000000 
0.000000 
0.000000 
0.013589 
0.020274 
0.013772 
0.014659 
0.022559 
0.020788 
0.027126 
0.034359 
0.043372 
0.039093 
0.039836 
0.025067 
0.024532 
0.036020 
0.028666 
0.028528 
0.024141 
0.020523 
0.012237 
0.010179 
0.011126 
0.017697 
0.033606 
0.036646 
0.020941 
0.017916 
0.029975 
0.034816 
0.028478 
0.018181 
0.017869 
0.011272 
0.000000 
0.000000 
0.017344 
0.036035 
0.038695 
0.039353 
0.025851 
0.034743 
0.046396 
0.064059 
0.054316 
0.035992 
0.029512 
0.022625 
0.027160 
0.035404 
0.048645 
0.039981 
0.038413 
0.053641 
0.071148 
0.077324 
0.052128 
0.033773 
0.033498 
0.021584 
0.020486 
0.031552 
0.033513 
0.042040 
0.043615 
0.048031 
0.063899 
0.046768 
0.030637 
0.036552 
0.052415 
0.040790 
0.045148 
0.055121 
0.052596 
0.041798 
0.030337 
0.014752 
0.012859 
0.023012 
0.030098 
0.031263 
0.031240 
0.047018 
0.069756 
0.071982 
0.054235 
0.039189 
0.036742 
0.044543 
0.030300 
0.032336 
0.052290 
0.056216 
0.033626 
0.023264 
0.016988 
0.017024 
0.007844 
0.000000 
0.000000 
0.007501 
0.016940 
0.027740 
0.021113 
0.024124 
0.032617 
0.021806 
0.020039 
0.028230 
0.034682 
0.039320 
0.040729 
0.027670 
0.032665 
0.053582 
0.048360 
0.051372 
0.031747 
0.017085 
0.014402 
0.019858 
0.016537 
0.022453 
0.038997 
0.034599 
0.020899 
0.024999 
0.049600 
0.064430 
0.053503 
0.038317 
0.041037 
0.032016 
0.018802 
0.015726 
0.025391 
0.040720 
0.038669 
0.030732 
0.021933 
0.026684 
0.040919 
0.065482 
0.048748 
0.032550 
0.033741 
0.024962 
0.022308 
0.030894 
0.051716 
0.050913 
0.046340 
0.051901 
0.063483 
0.065856 
0.045180 
0.036671 
0.041490 
0.028237 
0.022033 
0.027379 
0.032761 
0.037938 
0.042607 
0.041231 
0.050944 
0.038215 
0.034355 
0.042986 
0.059248 
0.043430 
0.042785 
0.045823 
0.035783 
0.023350 
0.012722 
0.000000 
0.000000 
0.000000 
0.000000 
0.000000 
0.011600 
0.031013 
0.054990 
0.050255 
0.041592 
0.042916 
0.038262 
0.030648 
0.017269 
0.015781 
0.026811 
0.029896 
0.017787 
0.014124 
0.019742 
0.029866 
0.018708 
0.010854 
0.010590 
0.016787 
0.017659 
0.022683 
0.021611 
0.030365 
0.034816 
0.022051 
0.021366 
0.032298 
0.033324 
0.039087 
0.034180 
0.027397 
0.038623 
0.065321 
0.060099 
0.066098 
0.044517 
0.024487 
0.026641 
0.040811 
0.029579 
0.026424 
0.038891 
0.035001 
0.021808 
0.020752 
0.039239 
0.056427 
0.045043 
0.037764 
0.048092 
0.049109 
0.040430 
0.035671 
0.036119 